18
Energy: -1154.0453032615
C    0.00067000   1.44252300   0.04258100
H   -0.00417200   1.75788100  -1.01371600
Cl   0.00542600   2.97600900   0.98527900
C    1.26119800   0.64447500   0.33548500
H    1.30723000   0.43899300   1.41706100
H    2.15084600   1.23912700   0.07926600
C    1.25688800  -0.67249500  -0.43668000
H    1.30114400  -0.47043100  -1.52247300
H    2.14906500  -1.26730300  -0.18980100
C   -0.00128900  -1.49090200  -0.18265200
Cl   0.00702000  -2.11966500   1.51701500
H   -0.00439600  -2.39454400  -0.80771800
C   -1.26164300  -0.67204800  -0.42416200
H   -1.31699100  -0.47061300  -1.50957700
H   -2.15153500  -1.26622500  -0.16774400
C   -1.25738500   0.64516800   0.34751400
H   -1.29275800   0.43963800   1.42952400
H   -2.14931900   1.24041300   0.10079800
18
Energy: -1154.0452915758
C   -0.00008200   1.44260200   0.04049900
H   -0.00641600   1.75477400  -1.01671200
Cl   0.00497800   2.97893400   0.97861000
C    1.26103700   0.64650200   0.33512700
H    1.30881200   0.44685000   1.41773800
H    2.14976000   1.24121500   0.07576800
C    1.25860100  -0.67312200  -0.43261400
H    1.31338400  -0.47538000  -1.51870200
H    2.14723800  -1.26900600  -0.17554200
C   -0.00190700  -1.49073800  -0.18699800
Cl   0.00416300  -2.13394600   1.50719400
H   -0.00489900  -2.38821500  -0.82106000
C   -1.26311100  -0.67130500  -0.42204700
H   -1.32472300  -0.47028500  -1.50713000
H   -2.15098900  -1.26650000  -0.16099900
C   -1.25698900   0.64560800   0.34984000
H   -1.28952000   0.44113200   1.43211100
H   -2.14933800   1.24088000   0.10491600
18
Energy: -1154.0452535726
C   -0.00080000   1.44310000   0.03867100
H   -0.00842200   1.75219900  -1.01950700
Cl   0.00440100   2.98235700   0.97192600
C    1.26083200   0.64859900   0.33472700
H    1.31031400   0.45470100   1.41840900
H    2.14867500   1.24283500   0.07158700
C    1.26021800  -0.67384800  -0.42843700
H    1.32590000  -0.47971200  -1.51457400
H    2.14532500  -1.27065300  -0.16158000
C   -0.00253500  -1.49084800  -0.19118000
Cl   0.00118900  -2.14899200   1.49731900
H   -0.00517200  -2.38241600  -0.83365700
C   -1.26457800  -0.67071600  -0.41996800
H   -1.33276100  -0.46963600  -1.50455300
H   -2.15053900  -1.26663800  -0.15438100
C   -1.25646300   0.64612500   0.35185400
H   -1.28609100   0.44245600   1.43441500
H   -2.14949200   1.24108700   0.10892900
18
Energy: -1154.0451907739
C   -0.00150200   1.44358500   0.03679000
H   -0.01042700   1.74962500  -1.02224900
Cl   0.00382400   2.98573300   0.96529800
C    1.26061600   0.65069600   0.33436700
H    1.31187400   0.46260500   1.41899200
H    2.14763000   1.24445900   0.06736200
C    1.26182200  -0.67454300  -0.42428600
H    1.33831000  -0.48408100  -1.51029300
H    2.14336800  -1.27225300  -0.14769600
C   -0.00315700  -1.49097300  -0.19531800
Cl  -0.00186700  -2.16409700   1.48732500
H   -0.00540600  -2.37655400  -0.84612400
C   -1.26600900  -0.67011800  -0.41790600
H   -1.34075900  -0.46901300  -1.50193400
H   -2.15007200  -1.26680100  -0.14778100
C   -1.25591700   0.64664200   0.35387700
H   -1.28268900   0.44379700   1.43668000
H   -2.14963900   1.24129200   0.11289700
18
Energy: -1154.0451041408
C   -0.00219400   1.44406400   0.03493400
H   -0.01243100   1.74706500  -1.02498200
Cl   0.00324600   2.98905600   0.95871800
C    1.26044200   0.65280300   0.33396000
H    1.31347800   0.47053700   1.41952700
H    2.14659700   1.24607100   0.06310800
C    1.26342000  -0.67525000  -0.42009000
H    1.35061100  -0.48848400  -1.50588200
H    2.14134100  -1.27378900  -0.13389100
C   -0.00376200  -1.49108200  -0.19942800
Cl  -0.00497600  -2.17924300   1.47720100
H   -0.00560000  -2.37062600  -0.85846300
C   -1.26743700  -0.66954400  -0.41583300
H   -1.34871300  -0.46841500  -1.49928300
H   -2.14956900  -1.26697200  -0.14120700
C   -1.25537400   0.64715500   0.35586900
H   -1.27930800   0.44515500   1.43892000
H   -2.14977000   1.24149800   0.11682100
18
Energy: -1154.0449945886
C   -0.00287600   1.44453500   0.03308200
H   -0.01443400   1.74451700  -1.02769500
Cl   0.00266700   2.99233100   0.95218400
C    1.26029400   0.65491900   0.33352600
H    1.31511900   0.47848400   1.42000000
H    2.14558100   1.24767600   0.05882500
C    1.26500900  -0.67596000  -0.41586900
H    1.36280500  -0.49292600  -1.50134100
H    2.13925100  -1.27526900  -0.12015100
C   -0.00435100  -1.49118100  -0.20350300
Cl  -0.00813200  -2.19442300   1.46694800
H   -0.00575700  -2.36462400  -0.87068400
C   -1.26885000  -0.66898600  -0.41375300
H   -1.35662500  -0.46784200  -1.49659200
H   -2.14903600  -1.26715200  -0.13465500
C   -1.25482600   0.64766700   0.35784000
H   -1.27594900   0.44652900   1.44113400
H   -2.14989000   1.24170500   0.12070400
18
Energy: -1154.0448629087
C   -0.00354900   1.44499800   0.03123300
H   -0.01643900   1.74198000  -1.03039100
Cl   0.00208600   2.99556100   0.94569500
C    1.26017200   0.65704100   0.33306300
H    1.31678700   0.48643300   1.42040700
H    2.14458000   1.24927300   0.05451100
C    1.26659200  -0.67667400  -0.41162100
H    1.37489700  -0.49741400  -1.49667000
H    2.13709900  -1.27669200  -0.10646600
C   -0.00492500  -1.49127000  -0.20754200
Cl  -0.01132400  -2.20962800   1.45656500
H   -0.00587600  -2.35854200  -0.88279500
C   -1.27025000  -0.66844200  -0.41166500
H   -1.36449400  -0.46729300  -1.49386200
H   -2.14847300  -1.26734200  -0.12812000
C   -1.25427600   0.64817800   0.35979100
H   -1.27260900   0.44791700   1.44332000
H   -2.14999700   1.24191500   0.12454700
18
Energy: -1154.0447097993
C   -0.00421400   1.44545600   0.02938500
H   -0.01844700   1.73945600  -1.03307000
Cl   0.00150200   2.99874700   0.93924700
C    1.26007300   0.65916900   0.33257000
H    1.31847700   0.49437500   1.42074700
H    2.14359000   1.25086200   0.05016800
C    1.26816700  -0.67739000  -0.40734700
H    1.38689300  -0.50195200  -1.49187100
H    2.13488000  -1.27806100  -0.09282200
C   -0.00548500  -1.49134800  -0.21154700
Cl  -0.01453900  -2.22485500   1.44604900
H   -0.00595900  -2.35237500  -0.89480400
C   -1.27163600  -0.66791200  -0.40956600
H   -1.37232000  -0.46676900  -1.49109100
H   -2.14788200  -1.26753800  -0.12160200
C   -1.25372100   0.64868800   0.36172000
H   -1.26928500   0.44931700   1.44548200
H   -2.15009500   1.24212900   0.12835300
18
Energy: -1154.0445358821
C   -0.00487500   1.44590900   0.02753600
H   -0.02045900   1.73694800  -1.03573400
Cl   0.00091900   3.00189200   0.93284100
C    1.25999300   0.66130500   0.33205100
H    1.32018600   0.50230900   1.42101600
H    2.14261700   1.25244500   0.04579200
C    1.26973000  -0.67811300  -0.40304800
H    1.39879700  -0.50654700  -1.48694900
H    2.13259600  -1.27937500  -0.07920600
C   -0.00603600  -1.49141100  -0.21552200
Cl  -0.01776700  -2.24010600   1.43539800
H   -0.00600800  -2.34612100  -0.90671600
C   -1.27301900  -0.66739900  -0.40746200
H   -1.38009900  -0.46627200  -1.48827000
H   -2.14725500  -1.26773500  -0.11509900
C   -1.25316700   0.64919600   0.36363500
H   -1.26597600   0.45073100   1.44761200
H   -2.15017600   1.24234400   0.13212400
18
Energy: -1154.0443417515
C   -0.00552700   1.44635600   0.02568800
H   -0.02247700   1.73445800  -1.03838000
Cl   0.00033300   3.00499600   0.92647800
C    1.25993200   0.66344700   0.33149600
H    1.32191100   0.51023600   1.42121500
H    2.14164900   1.25401600   0.04138400
C    1.27128400  -0.67883900  -0.39872100
H    1.41061300  -0.51120200  -1.48190000
H    2.13023300  -1.28063200  -0.06561200
C   -0.00656800  -1.49146900  -0.21946200
Cl  -0.02100000  -2.25537700   1.42460100
H   -0.00602700  -2.33978000  -0.91853500
C   -1.27438100  -0.66689800  -0.40534100
H   -1.38783100  -0.46580200  -1.48541300
H   -2.14660900  -1.26793800  -0.10860500
C   -1.25260600   0.64970900   0.36552800
H   -1.26268100   0.45215500   1.44972000
H   -2.15025000   1.24256500   0.13586100
18
Energy: -1154.0441279961
C   -0.00617300   1.44680100   0.02384000
H   -0.02450000   1.73198900  -1.04101000
Cl  -0.00025300   3.00805900   0.92015800
C    1.25988900   0.66559500   0.33090800
H    1.32365600   0.51815900   1.42134300
H    2.14069000   1.25557600   0.03693800
C    1.27282300  -0.67957000  -0.39436900
H    1.42234800  -0.51592400  -1.47672900
H    2.12778900  -1.28183200  -0.05202700
C   -0.00708800  -1.49152100  -0.22337300
Cl  -0.02423100  -2.27067100   1.41365500
H   -0.00601800  -2.33335300  -0.93026400
C   -1.27573000  -0.66641100  -0.40320700
H   -1.39551000  -0.46535900  -1.48251300
H   -2.14594000  -1.26814300  -0.10212000
C   -1.25204100   0.65022300   0.36740200
H   -1.25939900   0.45359200   1.45180300
H   -2.15031400   1.24278900   0.13956300
18
Energy: -1154.0438952151
C   -0.00681400   1.44724400   0.02199200
H   -0.02653100   1.72954300  -1.04362200
Cl  -0.00084100   3.01108400   0.91388500
C    1.25986100   0.66775000   0.33028500
H    1.32542200   0.52608300   1.42140100
H    2.13973800   1.25712200   0.03245500
C    1.27434500  -0.68030700  -0.38999100
H    1.43401000  -0.52071400  -1.47143600
H    2.12526000  -1.28297500  -0.03844400
C   -0.00759700  -1.49156800  -0.22725500
Cl  -0.02745100  -2.28598800   1.40255400
H   -0.00598300  -2.32684100  -0.94190500
C   -1.27706600  -0.66594000  -0.40105800
H   -1.40313500  -0.46494600  -1.47957100
H   -2.14524600  -1.26834700  -0.09564000
C   -1.25147300   0.65073900   0.36925800
H   -1.25613000   0.45504300   1.45386200
H   -2.15036800   1.24301700   0.14323200
18
Energy: -1154.0436440458
C   -0.00745100   1.44768100   0.02014200
H   -0.02856900   1.72712400  -1.04621300
Cl  -0.00142900   3.01407000   0.90766100
C    1.25984200   0.66991500   0.32962600
H    1.32721000   0.53400800   1.42138600
H    2.13879000   1.25865400   0.02793200
C    1.27584900  -0.68104900  -0.38559000
H    1.44560300  -0.52557800  -1.46602400
H    2.12264200  -1.28406300  -0.02486000
C   -0.00809600  -1.49161200  -0.23111000
Cl  -0.03065700  -2.30132600   1.39129600
H   -0.00592500  -2.32024500  -0.95345800
C   -1.27838900  -0.66548400  -0.39889600
H   -1.41070300  -0.46456300  -1.47658600
H   -2.14452900  -1.26854900  -0.08916400
C   -1.25089900   0.65126100   0.37109600
H   -1.25287600   0.45650900   1.45589700
H   -2.15041400   1.24324800   0.14686600
18
Energy: -1154.0433751142
C   -0.00808300   1.44811800   0.01828800
H   -0.03061700   1.72473200  -1.04878400
Cl  -0.00202000   3.01701900   0.90148400
C    1.25983700   0.67208700   0.32893400
H    1.32902300   0.54193500   1.42129500
H    2.13784500   1.26017100   0.02336700
C    1.27733000  -0.68178900  -0.38115600
H    1.45714500  -0.53052100  -1.46049300
H    2.11993000  -1.28509800  -0.01126300
C   -0.00858500  -1.49165100  -0.23493900
Cl  -0.03384200  -2.31668600   1.37986800
H   -0.00584500  -2.31357300  -0.96493600
C   -1.27970000  -0.66503700  -0.39670900
H   -1.41821900  -0.46421200  -1.47356500
H   -2.14379000  -1.26875300  -0.08268400
C   -1.25031600   0.65178700   0.37291700
H   -1.24963700   0.45799100   1.45791000
H   -2.15045400   1.24348200   0.15046700
18
Energy: -1154.0430890466
C   -0.00871700   1.44856200   0.01644100
H   -0.03267500   1.72237000  -1.05133900
Cl  -0.00261200   3.01993000   0.89535500
C    1.25984400   0.67425900   0.32820100
H    1.33085700   0.54986100   1.42113400
H    2.13690500   1.26167400   0.01876000
C    1.27879200  -0.68254500  -0.37670600
H    1.46864000  -0.53554500  -1.45484000
H    2.11711800  -1.28607600   0.00234700
C   -0.00906500  -1.49168400  -0.23875000
Cl  -0.03700300  -2.33206200   1.36827600
H   -0.00574400  -2.30681100  -0.97632700
C   -1.28099700  -0.66460900  -0.39451100
H   -1.42568300  -0.46389400  -1.47049600
H   -2.14302400  -1.26895200  -0.07620000
C   -1.24973900   0.65231200   0.37472200
H   -1.24641200   0.45949200   1.45989900
H   -2.15048500   1.24371800   0.15403400
18
Energy: -1154.0427865024
C   -0.00935000   1.44900800   0.01459400
H   -0.03474300   1.72003900  -1.05387600
Cl  -0.00320600   3.02280600   0.88927500
C    1.25986100   0.67643400   0.32742900
H    1.33271200   0.55778400   1.42089800
H    2.13596600   1.26316100   0.01411200
C    1.28023500  -0.68330800  -0.37223400
H    1.48010200  -0.54065200  -1.44906500
H    2.11420400  -1.28700200   0.01597300
C   -0.00953500  -1.49170900  -0.24254500
Cl  -0.04013400  -2.34744900   1.35651400
H   -0.00562600  -2.29996500  -0.98763700
C   -1.28228300  -0.66419500  -0.39229700
H   -1.43310000  -0.46361100  -1.46738300
H   -2.14223200  -1.26914900  -0.06970700
C   -1.24916000   0.65284100   0.37651100
H   -1.24320100   0.46100900   1.46186700
H   -2.15050900   1.24395800   0.15757000
18
Energy: -1154.0424681164
C   -0.00998300   1.44945500   0.01274600
H   -0.03682400   1.71773900  -1.05639400
Cl  -0.00380300   3.02564600   0.88324200
C    1.25988800   0.67861200   0.32661900
H    1.33458400   0.56570200   1.42058600
H    2.13502900   1.26463200   0.00942200
C    1.28166000  -0.68407800  -0.36773900
H    1.49154000  -0.54584800  -1.44316600
H    2.11118600  -1.28787900   0.02961900
C   -0.00999600  -1.49172300  -0.24632500
Cl  -0.04323100  -2.36284100   1.34457800
H   -0.00549000  -2.29303200  -0.99886900
C   -1.28355700  -0.66379500  -0.39006400
H   -1.44047800  -0.46336200  -1.46422600
H   -2.14141400  -1.26934400  -0.06320200
C   -1.24858000   0.65337500   0.37828500
H   -1.24000300   0.46254100   1.46381300
H   -2.15052900   1.24420100   0.16107400
18
Energy: -1154.0421345015
C   -0.01061600   1.44990300   0.01089700
H   -0.03891700   1.71547100  -1.05889500
Cl  -0.00440000   3.02845200   0.87725600
C    1.25992400   0.68079100   0.32576800
H    1.33647100   0.57361200   1.42019900
H    2.13409100   1.26608700   0.00468900
C    1.28306700  -0.68485800  -0.36322100
H    1.50296300  -0.55113300  -1.43713900
H    2.10806200  -1.28870900   0.04329100
C   -0.01044700  -1.49172500  -0.25009400
Cl  -0.04628800  -2.37822900   1.33246500
H   -0.00533900  -2.28601100  -1.01002800
C   -1.28482000  -0.66340700  -0.38781200
H   -1.44782100  -0.46315000  -1.46102500
H   -2.14056900  -1.26954000  -0.05668300
C   -1.24799900   0.65391300   0.38004500
H   -1.23681800   0.46408600   1.46573800
H   -2.15054300   1.24444700   0.16455000
18
Energy: -1154.0417862409
C   -0.01124800   1.45035400   0.00904400
H   -0.04102400   1.71323200  -1.06137900
Cl  -0.00499800   3.03122300   0.87131400
C    1.25996900   0.68296900   0.32487800
H    1.33836800   0.58151200   1.41973500
H    2.13315400   1.26752500  -0.00008700
C    1.28445300  -0.68565200  -0.35868100
H    1.51437600  -0.55650900  -1.43098000
H    2.10483000  -1.28949200   0.05699100
C   -0.01088400  -1.49171200  -0.25385800
Cl  -0.04930100  -2.39360700   1.32017100
H   -0.00517500  -2.27889600  -1.02111400
C   -1.28606900  -0.66303800  -0.38554400
H   -1.45513700  -0.46297400  -1.45777700
H   -2.13969700  -1.26973500  -0.05014700
C   -1.24741700   0.65445800   0.38179200
H   -1.23364400   0.46564300   1.46764300
H   -2.15055500   1.24469900   0.16799800
18
Energy: -1154.0414239426
C   -0.01187700   1.45083700   0.00721100
H   -0.04314500   1.71102500  -1.06387800
Cl  -0.00559500   3.03395900   0.86541500
C    1.26003900   0.68512600   0.32393900
H    1.34027100   0.58940100   1.41921000
H    2.13221600   1.26894800  -0.00490900
C    1.28583000  -0.68646100  -0.35411100
H    1.52578200  -0.56197300  -1.42469100
H    2.10148100  -1.29022700   0.07072500
C   -0.01131100  -1.49169900  -0.25759700
Cl  -0.05226400  -2.40896300   1.30767900
H   -0.00499700  -2.27168500  -1.03213600
C   -1.28730400  -0.66268500  -0.38325200
H   -1.46243200  -0.46283200  -1.45449400
H   -2.13879800  -1.26993400  -0.04359000
C   -1.24684600   0.65498600   0.38351900
H   -1.23047600   0.46721300   1.46954500
H   -2.15057300   1.24496500   0.17141600
18
Energy: -1154.0410480194
C   -0.01251200   1.45128700   0.00535200
H   -0.04527700   1.70884700  -1.06633400
Cl  -0.00619000   3.03666400   0.85955400
C    1.26010000   0.68730100   0.32296800
H    1.34218500   0.59727300   1.41859500
H    2.13127600   1.27034700  -0.00977400
C    1.28719000  -0.68727400  -0.34951700
H    1.53717500  -0.56753300  -1.41826100
H    2.09802300  -1.29092500   0.08450100
C   -0.01173200  -1.49165500  -0.26134400
Cl  -0.05516500  -2.42431000   1.29501000
H   -0.00480700  -2.26437600  -1.04309700
C   -1.28853700  -0.66233500  -0.38094100
H   -1.46970000  -0.46273600  -1.45115300
H   -2.13786900  -1.27013300  -0.03701500
C   -1.24626400   0.65553900   0.38523800
H   -1.22732300   0.46879300   1.47140700
H   -2.15057600   1.24522400   0.17481100
18
Energy: -1154.0406590316
C   -0.01314600   1.45173700   0.00348800
H   -0.04742200   1.70669800  -1.06877800
Cl  -0.00678200   3.03933800   0.85373200
C    1.26016800   0.68947500   0.32195600
H    1.34410700   0.60512700   1.41790200
H    2.13033300   1.27172600  -0.01468400
C    1.28853600  -0.68809800  -0.34489300
H    1.54855200  -0.57318500  -1.41169000
H    2.09444800  -1.29157800   0.09832500
C   -0.01214100  -1.49159500  -0.26508600
Cl  -0.05800100  -2.43964100   1.28214600
H   -0.00460400  -2.25696100  -1.05400000
C   -1.28976100  -0.66199900  -0.37860600
H   -1.47694500  -0.46268300  -1.44776300
H   -2.13691100  -1.27033500  -0.03042000
C   -1.24568000   0.65609700   0.38694300
H   -1.22417800   0.47038700   1.47324900
H   -2.15057400   1.24549000   0.17817900
18
Energy: -1154.0402574798
C   -0.01378100   1.45218600   0.00161700
H   -0.04957800   1.70457900  -1.07121000
Cl  -0.00737000   3.04197800   0.84794500
C    1.26024500   0.69164400   0.32090200
H    1.34603900   0.61296400   1.41713300
H    2.12939000   1.27308200  -0.01964100
C    1.28986500  -0.68893600  -0.34023800
H    1.55990700  -0.57892800  -1.40497600
H    2.09075000  -1.29218600   0.11220200
C   -0.01254000  -1.49151600  -0.26882000
Cl  -0.06076600  -2.45495700   1.26908300
H   -0.00438900  -2.24943600  -1.06484700
C   -1.29097400  -0.66167800  -0.37624600
H   -1.48416400  -0.46267400  -1.44432400
H   -2.13592600  -1.27054100  -0.02380400
C   -1.24509700   0.65666100   0.38863400
H   -1.22104400   0.47199700   1.47507000
H   -2.15056700   1.24576000   0.18151900
18
Energy: -1154.0398439354
C   -0.01441500   1.45263400  -0.00026200
H   -0.05174500   1.70249000  -1.07362800
Cl  -0.00795200   3.04458800   0.84219600
C    1.26032700   0.69380800   0.31980500
H    1.34798200   0.62078200   1.41628600
H    2.12844700   1.27441500  -0.02464500
C    1.29117800  -0.68978800  -0.33555300
H    1.57122800  -0.58476100  -1.39811800
H    2.08692600  -1.29274600   0.12613600
C   -0.01292800  -1.49142300  -0.27254600
Cl  -0.06345300  -2.47025500   1.25581600
H   -0.00416200  -2.24179800  -1.07563900
C   -1.29217800  -0.66137200  -0.37386300
H   -1.49135200  -0.46271200  -1.44083200
H   -2.13491300  -1.27075200  -0.01716700
C   -1.24451200   0.65723000   0.39031100
H   -1.21792100   0.47362400   1.47687300
H   -2.15055600   1.24603500   0.18483000
18
Energy: -1154.0394187765
C   -0.01505200   1.45307800  -0.00214700
H   -0.05392300   1.70042900  -1.07604200
Cl  -0.00852900   3.04716700   0.83648200
C    1.26042500   0.69597200   0.31867200
H    1.34993900   0.62858900   1.41535600
H    2.12750300   1.27572400  -0.02970000
C    1.29247000  -0.69065600  -0.33083100
H    1.58252000  -0.59068800  -1.39111400
H    2.08296700  -1.29325800   0.14014400
C   -0.01330700  -1.49131100  -0.27626400
Cl  -0.06606100  -2.48554800   1.24233400
H   -0.00392200  -2.23404000  -1.08639000
C   -1.29336600  -0.66108400  -0.37144400
H   -1.49851500  -0.46279700  -1.43729300
H   -2.13387600  -1.27097100  -0.01050500
C   -1.24392600   0.65780300   0.39197700
H   -1.21480600   0.47527200   1.47865500
H   -2.15054000   1.24631700   0.18811200
18
Energy: -1154.0389828082
C   -0.01568100   1.45352300  -0.00403800
H   -0.05611000   1.69839800  -1.07844200
Cl  -0.00909800   3.04971000   0.83080900
C    1.26052400   0.69812700   0.31748300
H    1.35191400   0.63637800   1.41435700
H    2.12656100   1.27700800  -0.03480300
C    1.29374700  -0.69153400  -0.32607600
H    1.59376000  -0.59670200  -1.38396700
H    2.07887200  -1.29371900   0.15420900
C   -0.01367200  -1.49119200  -0.27997900
Cl  -0.06858500  -2.50081500   1.22865100
H   -0.00367000  -2.22616500  -1.09708200
C   -1.29455000  -0.66081500  -0.36900500
H   -1.50563900  -0.46293300  -1.43369900
H   -2.13281200  -1.27119600  -0.00382700
C   -1.24334100   0.65838500   0.39363000
H   -1.21170500   0.47694300   1.48042000
H   -2.15051600   1.24659900   0.19135900
18
Energy: -1154.0385365988
C   -0.01631200   1.45396500  -0.00593700
H   -0.05830400   1.69639600  -1.08082900
Cl  -0.00966100   3.05221800   0.82517200
C    1.26063400   0.70027600   0.31625600
H    1.35391100   0.64415500   1.41327000
H    2.12561900   1.27826300  -0.03995700
C    1.29500300  -0.69242900  -0.32128800
H    1.60495700  -0.60280700  -1.37666800
H    2.07463500  -1.29412700   0.16834700
C   -0.01402800  -1.49105200  -0.28368400
Cl  -0.07102600  -2.51606600   1.21474900
H   -0.00340200  -2.21816600  -1.10773000
C   -1.29571900  -0.66056500  -0.36653300
H   -1.51273100  -0.46312100  -1.43005300
H   -2.13172100  -1.27143100   0.00287900
C   -1.24275200   0.65896700   0.39526700
H   -1.20861700   0.47863900   1.48216400
H   -2.15048600   1.24688400   0.19457500
18
Energy: -1154.0380808658
C   -0.01694000   1.45440200  -0.00784200
H   -0.06050700   1.69442300  -1.08320400
Cl  -0.01021700   3.05469000   0.81957300
C    1.26075200   0.70242200   0.31498400
H    1.35593300   0.65191700   1.41210300
H    2.12467800   1.27949100  -0.04516000
C    1.29623400  -0.69334500  -0.31646500
H    1.61610900  -0.60900200  -1.36922000
H    2.07025300  -1.29448000   0.18255300
C   -0.01437000  -1.49090100  -0.28738300
Cl  -0.07338600  -2.53128700   1.20062900
H   -0.00311800  -2.21003800  -1.11833200
C   -1.29687500  -0.66034300  -0.36403400
H   -1.51979200  -0.46336100  -1.42635500
H   -2.13060000  -1.27167500   0.00961200
C   -1.24215900   0.65955800   0.39689500
H   -1.20554400   0.48036000   1.48389000
H   -2.15045000   1.24717000   0.19775500
18
Energy: -1154.0376164351
C   -0.01756900   1.45483200  -0.00975000
H   -0.06271700   1.69247900  -1.08557100
Cl  -0.01076700   3.05712900   0.81401400
C    1.26088300   0.70455500   0.31366800
H    1.35798000   0.65966100   1.41085600
H    2.12373800   1.28068800  -0.05041400
C    1.29745400  -0.69426400  -0.31160600
H    1.62721800  -0.61529100  -1.36162400
H    2.06572300  -1.29478300   0.19682700
C   -0.01470900  -1.49073200  -0.29107600
Cl  -0.07566200  -2.54647300   1.18629600
H   -0.00281500  -2.20178700  -1.12889500
C   -1.29802700  -0.66012700  -0.36150000
H   -1.52682300  -0.46365900  -1.42260500
H   -2.12944700  -1.27193300   0.01637800
C   -1.24156500   0.66014000   0.39850500
H   -1.20248700   0.48210900   1.48559700
H   -2.15040500   1.24745400   0.20089800
18
Energy: -1154.0371438974
C   -0.01819500   1.45525800  -0.01168700
H   -0.06493400   1.69055900  -1.08791700
Cl  -0.01131100   3.05953300   0.80849300
C    1.26102100   0.70668800   0.31232300
H    1.36005400   0.66738600   1.40952600
H    2.12280000   1.28186100  -0.05572100
C    1.29864900  -0.69521000  -0.30672300
H    1.63829600  -0.62167700  -1.35387100
H    2.06104300  -1.29503500   0.21118000
C   -0.01503400  -1.49053900  -0.29478100
Cl  -0.07785700  -2.56161900   1.17174800
H   -0.00249500  -2.19339400  -1.13941900
C   -1.29917200  -0.65994800  -0.35894400
H   -1.53383500  -0.46401600  -1.41880100
H   -2.12826300  -1.27220400   0.02318700
C   -1.24097700   0.66073900   0.40011500
H   -1.19944500   0.48388300   1.48728500
H   -2.15034600   1.24773400   0.20400600
18
Energy: -1154.0366644443
C   -0.01882100   1.45567800  -0.01360500
H   -0.06715700   1.68866600  -1.09025600
Cl  -0.01184900   3.06189700   0.80301200
C    1.26117700   0.70880400   0.31091100
H    1.36215100   0.67507500   1.40812000
H    2.12185900   1.28299900  -0.06107000
C    1.29981800  -0.69617200  -0.30179900
H    1.64933900  -0.62815000  -1.34596400
H    2.05620700  -1.29522700   0.22558000
C   -0.01534300  -1.49032600  -0.29848000
Cl  -0.07997100  -2.57668500   1.15698000
H   -0.00215600  -2.18487800  -1.14989300
C   -1.30030100  -0.65979100  -0.35635200
H   -1.54082700  -0.46443000  -1.41494500
H   -2.12703800  -1.27248700   0.03003200
C   -1.24037600   0.66132900   0.40169500
H   -1.19642300   0.48568200   1.48896000
H   -2.15028900   1.24801400   0.20707500
18
Energy: -1154.0361787596
C   -0.01944300   1.45609200  -0.01553300
H   -0.06938800   1.68679700  -1.09258300
Cl  -0.01238200   3.06422400   0.79756700
C    1.26133700   0.71090500   0.30946000
H    1.36427300   0.68273200   1.40662900
H    2.12092200   1.28411000  -0.06647300
C    1.30097100  -0.69714700  -0.29684700
H    1.66036500  -0.63472500  -1.33788900
H    2.05121000  -1.29536600   0.24004800
C   -0.01564200  -1.49009100  -0.30219100
Cl  -0.08200300  -2.59168000   1.14199000
H   -0.00179700  -2.17622100  -1.16032700
C   -1.30142000  -0.65965300  -0.35373500
H   -1.54781100  -0.46490600  -1.41103200
H   -2.12577500  -1.27278800   0.03692700
C   -1.23977500   0.66191800   0.40326600
H   -1.19341900   0.48750600   1.49061600
H   -2.15022500   1.24829300   0.21010800
18
Energy: -1154.0356871971
C   -0.02007100   1.45645900  -0.01748100
H   -0.07162900   1.68495000  -1.09487500
Cl  -0.01290800   3.06652700   0.79215300
C    1.26149500   0.71300000   0.30795200
H    1.36642300   0.69035600   1.40504100
H    2.11998000   1.28518500  -0.07192700
C    1.30211200  -0.69812100  -0.29185600
H    1.67138400  -0.64141100  -1.32962400
H    2.04604300  -1.29545200   0.25459200
C   -0.01592900  -1.48980500  -0.30593500
Cl  -0.08395400  -2.60661800   1.12677200
H   -0.00141700  -2.16742300  -1.17073400
C   -1.30254100  -0.65951600  -0.35108100
H   -1.55479000  -0.46545000  -1.40704400
H   -2.12446400  -1.27310600   0.04387700
C   -1.23915600   0.66250800   0.40481200
H   -1.19043300   0.48935600   1.49224600
H   -2.15014700   1.24855900   0.21311200
18
Energy: -1154.0351900098
C   -0.02069000   1.45685900  -0.01942700
H   -0.07388200   1.68312000  -1.09718000
Cl  -0.01343000   3.06878100   0.78676900
C    1.26167600   0.71508000   0.30640300
H    1.36859900   0.69794700   1.40338100
H    2.11904200   1.28623800  -0.07744400
C    1.30321900  -0.69913700  -0.28683200
H    1.68241300  -0.64820200  -1.32118800
H    2.04070200  -1.29548100   0.26921400
C   -0.01619900  -1.48950700  -0.30968600
Cl  -0.08582100  -2.62146400   1.11130200
H   -0.00101800  -2.15846500  -1.18110500
C   -1.30364100  -0.65943200  -0.34840500
H   -1.56177900  -0.46605100  -1.40301000
H   -2.12311200  -1.27344400   0.05089100
C   -1.23855000   0.66310100   0.40636100
H   -1.18745900   0.49122600   1.49387300
H   -2.15007000   1.24883100   0.21608200
18
Energy: -1154.0346894192
C   -0.02130300   1.45729100  -0.02134100
H   -0.07614600   1.68130700  -1.09951100
Cl  -0.01394400   3.07098800   0.78140900
C    1.26188500   0.71713600   0.30479200
H    1.37080500   0.70550600   1.40165000
H    2.11810400   1.28726400  -0.08302600
C    1.30429300  -0.70017300  -0.28175800
H    1.69345900  -0.65509900  -1.31257700
H    2.03517800  -1.29545200   0.28391600
C   -0.01645700  -1.48920100  -0.31342300
Cl  -0.08760500  -2.63621000   1.09556700
H   -0.00060100  -2.14935800  -1.19145200
C   -1.30472600  -0.65938100  -0.34569800
H   -1.56878600  -0.46671100  -1.39892800
H   -2.12171300  -1.27380700   0.05796900
C   -1.23794700   0.66367500   0.40789900
H   -1.18449700   0.49311300   1.49549700
H   -2.15000100   1.24911200   0.21901500
18
Energy: -1154.0341794695
C   -0.02192600   1.45767700  -0.02332400
H   -0.07844700   1.67949100  -1.10182600
Cl  -0.01445500   3.07320000   0.77602200
C    1.26209400   0.71921600   0.30313200
H    1.37307500   0.71311900   1.39979400
H    2.11715400   1.28826900  -0.08873900
C    1.30537300  -0.70122100  -0.27659900
H    1.70463100  -0.66220000  -1.30365400
H    2.02940400  -1.29537000   0.29887400
C   -0.01671400  -1.48883700  -0.31725900
Cl  -0.08931600  -2.65106300   1.07941700
H   -0.00015700  -2.13998300  -1.20188400
C   -1.30583000  -0.65933000  -0.34293000
H   -1.57587500  -0.46745600  -1.39472500
H   -2.12024900  -1.27419900   0.06519100
C   -1.23733400   0.66426400   0.40944500
H   -1.18152100   0.49504000   1.49711000
H   -2.14990700   1.24938300   0.22195600
18
Energy: -1154.0336601981
C   -0.02255900   1.45805600  -0.02534000
H   -0.08079400   1.67765700  -1.10417400
Cl  -0.01496400   3.07540900   0.77057700
C    1.26232400   0.72132200   0.30138300
H    1.37542900   0.72082900   1.39782000
H    2.11618800   1.28925700  -0.09461700
C    1.30644100  -0.70230500  -0.27129900
H    1.71599300  -0.66953600  -1.29437700
H    2.02333200  -1.29522200   0.31415800
C   -0.01696300  -1.48842000  -0.32117700
Cl  -0.09096000  -2.66606900   1.06273100
H    0.00031200  -2.13029300  -1.21245400
C   -1.30695500  -0.65930800  -0.34008300
H   -1.58309100  -0.46828300  -1.39039000
H   -2.11870700  -1.27462300   0.07259200
C   -1.23670700   0.66486300   0.41100300
H   -1.17851200   0.49701000   1.49873500
H   -2.14980600   1.24965500   0.22491300
18
Energy: -1154.0331280390
C   -0.02322100   1.45844500  -0.02746400
H   -0.08326700   1.67574200  -1.10663200
Cl  -0.01548700   3.07769000   0.76489200
C    1.26258600   0.72352500   0.29949000
H    1.37795900   0.72890400   1.39564900
H    2.11517400   1.29025900  -0.10087600
C    1.30752900  -0.70346100  -0.26567900
H    1.72792900  -0.67737100  -1.28440000
H    2.01673000  -1.29499600   0.33030900
C   -0.01721300  -1.48793400  -0.32531600
Cl  -0.09258300  -2.68173500   1.04490700
H    0.00082500  -2.11994100  -1.22352000
C   -1.30813600  -0.65931500  -0.33706100
H   -1.59068500  -0.46923000  -1.38576900
H   -2.11703000  -1.27510000   0.08043300
C   -1.23604700   0.66549000   0.41262700
H   -1.17537000   0.49908800   1.50042400
H   -2.14969200   1.24994000   0.22798400
18
Energy: -1154.0326224591
C   -0.02383400   1.45879200  -0.02943600
H   -0.08557800   1.67400500  -1.10889100
Cl  -0.01596600   3.07976500   0.75966000
C    1.26284000   0.72554100   0.29768400