17
Energy:  -309.3521554615
C    1.67232500   0.05621500  -0.19152100
H    1.54074100   0.12652300   0.89392300
H    2.71286400   0.10013400  -0.52698000
C    0.82899400  -0.91857900  -0.89874900
H    1.21046500  -1.28896000  -1.85510000
C   -0.28313100  -1.59269600  -0.35775100
H   -0.57075700  -2.51173100  -0.88039300
C   -1.00314600  -1.26976200   0.78191800
H   -1.63597000  -2.06687200   1.18749500
C   -1.14841700  -0.01968900   1.40662800
H   -1.70669600  -0.03243900   2.34800200
C   -0.94080900   1.25052800   0.85513200
H   -1.45090800   2.07250400   1.36845400
C   -0.33606600   1.56689400  -0.35848800
H   -0.67508300   2.48338800  -0.85569600
C    0.73061100   0.89688800  -0.97602100
H    1.02506100   1.21131900  -1.98155400
17
Energy:  -309.3520897771
C    1.67195500   0.05705000  -0.19076700
H    1.53920900   0.12942400   0.89422900
H    2.71254600   0.10177600  -0.52549300
C    0.82983800  -0.91889200  -0.89750700
H    1.21292400  -1.29002600  -1.85321500
C   -0.28354300  -1.59271000  -0.35823900
H   -0.57123500  -2.51104600  -0.88197600
C   -1.00418500  -1.26978700   0.78063100
H   -1.63887100  -2.06602600   1.18485100
C   -1.14734600  -0.02002100   1.40682700
H   -1.70434200  -0.03292000   2.34912600
C   -0.93929700   1.25035900   0.85574200
H   -1.44737100   2.07261700   1.37054300
C   -0.33667600   1.56624600  -0.35901600
H   -0.67644200   2.48230700  -0.85629800
C    0.72947000   0.89596500  -0.97699300
H    1.02344400   1.20934600  -1.98314500
17
Energy:  -309.3520221747
C    1.67137200   0.05790400  -0.19019500
H    1.53766600   0.13235900   0.89470500
H    2.71233100   0.10342200  -0.52401800
C    0.83072000  -0.91928700  -0.89646600
H    1.21528200  -1.29097700  -1.85109800
C   -0.28374800  -1.59269000  -0.35891000
H   -0.57172200  -2.51038000  -0.88358500
C   -1.00530800  -1.26962100   0.77952200
H   -1.64182300  -2.06525600   1.18224600
C   -1.14632500  -0.02031400   1.40709700
H   -1.70189200  -0.03340700   2.35011800
C   -0.93786400   1.25001800   0.85648200
H   -1.44384400   2.07274700   1.37263000
C   -0.33718100   1.56552200  -0.35960400
H   -0.67781000   2.48130900  -0.85693800
C    0.72843900   0.89500200  -0.97808700
H    1.02178400   1.20731300  -1.98460000
17
Energy:  -309.3519526746
C    1.67097500   0.05874600  -0.18943700
H    1.53612100   0.13529500   0.89500900
H    2.71200400   0.10505500  -0.52251000
C    0.83157400  -0.91954800  -0.89525100
H    1.21770600  -1.29198200  -1.84917000
C   -0.28417300  -1.59266600  -0.35938200
H   -0.57220600  -2.50969400  -0.88519900
C   -1.00634300  -1.26964100   0.77823700
H   -1.64471200  -2.06442700   1.17962800
C   -1.14527600  -0.02066100   1.40732500
H   -1.69949300  -0.03389600   2.35121400
C   -0.93635800   1.24982700   0.85706600
H   -1.44030200   2.07284700   1.37469100
C   -0.33779300   1.56483200  -0.36011700
H   -0.67913700   2.48025800  -0.85754100
C    0.72732700   0.89402100  -0.97908300
H    1.02016300   1.20529900  -1.98618000
17
Energy:  -309.3518809067
C    1.67043600   0.05961100  -0.18880800
H    1.53454900   0.13828000   0.89548700
H    2.71179500   0.10669800  -0.52101000
C    0.83239300  -0.91988000  -0.89417000
H    1.22007800  -1.29290400  -1.84708200
C   -0.28443800  -1.59264400  -0.36002000
H   -0.57268800  -2.50899000  -0.88683200
C   -1.00745900  -1.26952000   0.77710300
H   -1.64764200  -2.06364800   1.17702100
C   -1.14423700  -0.02097400   1.40757000
H   -1.69702400  -0.03439700   2.35224700
C   -0.93491200   1.24949800   0.85776400
H   -1.43674500   2.07295000   1.37674900
C   -0.33831900   1.56410500  -0.36070400
H   -0.68045800   2.47924000  -0.85815900
C    0.72623400   0.89301300  -0.98018000
H    1.01851400   1.20322700  -1.98767600
17
Energy:  -309.3518144122
C    1.66999300   0.06034800  -0.18809800
H    1.53317500   0.14090600   0.89574800
H    2.71152200   0.10813200  -0.51967500
C    0.83327100  -0.92009200  -0.89322100
H    1.22216500  -1.29371700  -1.84528800
C   -0.28499500  -1.59254900  -0.36018600
H   -0.57312400  -2.50841100  -0.88831100
C   -1.00818000  -1.26960700   0.77569300
H   -1.65022600  -2.06297300   1.17476300
C   -1.14345100  -0.02130100   1.40801200
H   -1.69482400  -0.03483700   2.35312100
C   -0.93344500   1.24939900   0.85800200
H   -1.43363000   2.07304900   1.37857800
C   -0.33899100   1.56343600  -0.36092100
H   -0.68161000   2.47835900  -0.85871600
C    0.72536000   0.89212100  -0.98117700
H    1.01706700   1.20139900  -1.98902300
17
Energy:  -309.3517554286
C    1.66921800   0.06110500  -0.18804800
H    1.53196600   0.14321700   0.89653000
H    2.71160800   0.10939500  -0.51856800
C    0.83371000  -0.92064600  -0.89275300
H    1.22378900  -1.29419800  -1.84326700
C   -0.28483600  -1.59243700  -0.36092400
H   -0.57347600  -2.50779000  -0.88949500
C   -1.00893000  -1.26934800   0.77474200
H   -1.65258400  -2.06252600   1.17292100
C   -1.14277300  -0.02164700   1.40841700
H   -1.69288000  -0.03519100   2.35380700
C   -0.93235200   1.24894500   0.85855800
H   -1.43107700   2.07332700   1.38027600
C   -0.33902700   1.56266800  -0.36161000
H   -0.68266500   2.47776900  -0.85923000
C    0.72468000   0.89129500  -0.98225700
H    1.01570700   1.19972700  -1.98979900
17
Energy:  -309.3516133284
C    1.66905900   0.06253400  -0.18594000
H    1.52902000   0.14878100   0.89653800
H    2.71065900   0.11233900  -0.51563100
C    0.83532300  -0.92043300  -0.88989200
H    1.22845800  -1.29616700  -1.84030000
C   -0.28605000  -1.59255900  -0.36170300
H   -0.57437800  -2.50651300  -0.89265500
C   -1.01125000  -1.26954400   0.77291700
H   -1.65758300  -2.06079700   1.16790900
C   -1.14054800  -0.02211600   1.40824800
H   -1.68841500  -0.03620200   2.35603700
C   -0.92975600   1.24866800   0.85978900
H   -1.42420000   2.07305100   1.38366300
C   -0.34060600   1.56171900  -0.36240300
H   -0.68481000   2.47553800  -0.86019800
C    0.72223800   0.88937100  -0.98373900
H    1.01291600   1.19599500  -1.99334100
17
Energy:  -309.3514581679
C    1.66761200   0.06430700  -0.18511100
H    1.52591000   0.15472900   0.89782300
H    2.71041200   0.11544000  -0.51267400
C    0.83663600  -0.92118800  -0.88818000
H    1.23266700  -1.29746100  -1.83571100
C   -0.28626600  -1.59229100  -0.36313000
H   -0.57529700  -2.50498300  -0.89579900
C   -1.01319000  -1.26926600   0.77049000
H   -1.66326700  -2.05953200   1.16320700
C   -1.13872600  -0.02295700   1.40901900
H   -1.68348900  -0.03716500   2.35793800
C   -0.92696000   1.24778100   0.86093200
H   -1.41754700   2.07343900   1.38765700
C   -0.34120600   1.55995900  -0.36381600
H   -0.68721800   2.47388300  -0.86138400
C    0.72036900   0.88718900  -0.98617800
H    1.00963900   1.19178000  -1.99578500
17
Energy:  -309.3512917430
C    1.66704000   0.06596200  -0.18322700
H    1.52270900   0.16079000   0.89828900
H    2.70969200   0.11849200  -0.50956000
C    0.83810200  -0.92112800  -0.88555800
H    1.23735300  -1.29915500  -1.83211300
C   -0.28736500  -1.59227900  -0.36405200
H   -0.57622900  -2.50353300  -0.89919400
C   -1.01549900  -1.26932800   0.76846200
H   -1.66859200  -2.05792900   1.15813500
C   -1.13656600  -0.02355800   1.40913900
H   -1.67856100  -0.03825800   2.36011800
C   -0.92421500   1.24724800   0.86207800
H   -1.41038600   2.07323900   1.39123200
C   -0.34260100   1.55870300  -0.36475600
H   -0.68936200   2.47174700  -0.86242200
C    0.71792400   0.88500600  -0.98808100
H    1.00663300   1.18764700  -1.99919000
17
Energy:  -309.3511160645
C    1.66576200   0.06769200  -0.18203900
H    1.51944700   0.16705400   0.89931300
H    2.70922400   0.12157800  -0.50640400
C    0.83941000  -0.92149300  -0.88353700
H    1.24165500  -1.30039300  -1.82756300
C   -0.28783100  -1.59202400  -0.36542100
H   -0.57717000  -2.50189400  -0.90250200
C   -1.01754200  -1.26925700   0.76602400
H   -1.67423100  -2.05660300   1.15335900
C   -1.13462100  -0.02446200   1.40972800
H   -1.67346100  -0.03930100   2.36221600
C   -0.92137700   1.24638300   0.86313600
H   -1.40346600   2.07347300   1.39512900
C   -0.34338200   1.55698400  -0.36616000
H   -0.69161000   2.47002000  -0.86356000
C    0.71590400   0.88262500  -0.99049100
H    1.00336600   1.18328300  -2.00192800
17
Energy:  -309.3509318313
C    1.66503000   0.06946500  -0.18021700
H    1.51612500   0.17336100   0.89993900
H    2.70860100   0.12457000  -0.50319800
C    0.84070100  -0.92139800  -0.88101600
H    1.24624200  -1.30185100  -1.82373300
C   -0.28894100  -1.59193800  -0.36637700
H   -0.57809900  -2.50033700  -0.90599000
C   -1.01983300  -1.26932600   0.76395300
H   -1.67954700  -2.05510800   1.14839900
C   -1.13250100  -0.02514900   1.40992300
H   -1.66833700  -0.04044100   2.36437600
C   -0.91862300   1.24572900   0.86414400
H   -1.39625700   2.07324900   1.39864600
C   -0.34469000   1.55558300  -0.36717600
H   -0.69359500   2.46796900  -0.86456300
C    0.71346700   0.88029300  -0.99256400
H    1.00033300   1.17899600  -2.00524700
17
Energy:  -309.3507389025
C    1.66381100   0.07114800  -0.17886900
H    1.51276800   0.17983600   0.90085200
H    2.70802800   0.12755100  -0.49992000
C    0.84192300  -0.92148100  -0.87889000
H    1.25047500  -1.30292900  -1.81915200
C   -0.28951500  -1.59164900  -0.36771700
H   -0.57904800  -2.49865100  -0.90940200
C   -1.02190300  -1.26933600   0.76156500
H   -1.68506600  -2.05383400   1.14371200
C   -1.13056200  -0.02609400   1.41044600
H   -1.66309900  -0.04153900   2.36650900
C   -0.91582900   1.24479700   0.86511400
H   -1.38925300   2.07335700   1.40238300
C   -0.34550200   1.55386200  -0.36857500
H   -0.69565600   2.46630100  -0.86565900
C    0.71138900   0.87775600  -0.99499900
H    0.99711700   1.17457000  -2.00809800
17
Energy:  -309.3505376983
C    1.66300700   0.07297300  -0.17703800
H    1.50937100   0.18634800   0.90148600
H    2.70741100   0.13042800  -0.49661000
C    0.84306600  -0.92127500  -0.87638300
H    1.25494400  -1.30418200  -1.81519700
C   -0.29066400  -1.59152200  -0.36872000
H   -0.57997500  -2.49700200  -0.91293700
C   -1.02419500  -1.26949600   0.75946400
H   -1.69030000  -2.05243000   1.13892600
C   -1.12845600  -0.02688100   1.41063200
H   -1.65785100  -0.04270700   2.36870200
C   -0.91310100   1.24406200   0.86598700
H   -1.38205000   2.07309700   1.40581000
C   -0.34675500   1.55238300  -0.36968100
H   -0.69745700   2.46434600  -0.86661000
C    0.70899200   0.87532000  -0.99715700
H    0.99409100   1.17020400  -2.01137300
17
Energy:  -309.3503283513
C    1.66177700   0.07471600  -0.17562800
H    1.50591900   0.19301700   0.90244600
H    2.70690700   0.13325100  -0.49325500
C    0.84412600  -0.92121600  -0.87426400
H    1.25909700  -1.30507300  -1.81062100
C   -0.29136000  -1.59119100  -0.37000700
H   -0.58090800  -2.49530800  -0.91645800
C   -1.02632200  -1.26949400   0.75722400
H   -1.69567700  -2.05127000   1.13437200
C   -1.12653600  -0.02781800   1.41111700
H   -1.65246000  -0.04386100   2.37075300
C   -0.91039200   1.24303200   0.86687500
H   -1.37499900   2.07306400   1.40935500
C   -0.34761000   1.55063000  -0.37104000
H   -0.69928200   2.46272800  -0.86764500
C    0.70684900   0.87273400  -0.99964600
H    0.99094800   1.16572600  -2.01427800
17
Energy:  -309.3501099471
C    1.66096400   0.07654800  -0.17368200
H    1.50242900   0.19973900   0.90298700
H    2.70621200   0.13595600  -0.48981300
C    0.84511500  -0.92076300  -0.87172100
H    1.26345200  -1.30611000  -1.80657300
C   -0.29260900  -1.59104600  -0.37101100
H   -0.58180900  -2.49355000  -0.92001800
C   -1.02858000  -1.26981200   0.75506700
H   -1.70075900  -2.04993900   1.12972800
C   -1.12444300  -0.02871400   1.41124400
H   -1.64712800  -0.04507100   2.37303200
C   -0.90767100   1.24226000   0.86758200
H   -1.36778600   2.07274600   1.41265400
C   -0.34883000   1.54912400  -0.37220200
H   -0.70088600   2.46086300  -0.86852800
C    0.70446100   0.87012000  -1.00186600
H    0.98794500   1.16131200  -2.01758200
17
Energy:  -309.3498831683
C    1.65969700   0.07830200  -0.17221900
H    1.49888800   0.20661800   0.90393900
H    2.70572100   0.13858200  -0.48634600
C    0.84603400  -0.92051800  -0.86960500
H    1.26749700  -1.30679700  -1.80193800
C   -0.29336900  -1.59065800  -0.37228100
H   -0.58273400  -2.49185400  -0.92363000
C   -1.03072100  -1.26981300   0.75290900
H   -1.70600600  -2.04890900   1.12533800
C   -1.12256100  -0.02967700   1.41171100
H   -1.64159400  -0.04627500   2.37503300
C   -0.90503100   1.24112500   0.86837100
H   -1.36071400   2.07260600   1.41603700
C   -0.34966000   1.54733700  -0.37356900
H   -0.70250600   2.45933800  -0.86951200
C    0.70229300   0.86745900  -1.00442500
H    0.98484300   1.15680000  -2.02051400
17
Energy:  -309.3496472350
C    1.65887600   0.08015100  -0.17020100
H    1.49531700   0.21354600   0.90442000
H    2.70499100   0.14106800  -0.48277200
C    0.84685300  -0.91988200  -0.86703700
H    1.27174200  -1.30762500  -1.79782500
C   -0.29470500  -1.59051500  -0.37332400
H   -0.58360000  -2.49001000  -0.92721200
C   -1.03299600  -1.27027100   0.75077100
H   -1.71091300  -2.04765500   1.12086100
C   -1.12047600  -0.03066400   1.41176600
H   -1.63617400  -0.04752000   2.37736100
C   -0.90236100   1.24029900   0.86897500
H   -1.35351400   2.07222900   1.41920200
C   -0.35084900   1.54582600  -0.37479500
H   -0.70391500   2.45757900  -0.87033800
C    0.69993700   0.86473900  -1.00669600
H    0.98186400   1.15236900  -2.02385700
17
Energy:  -309.3494026563
C    1.65755800   0.08194200  -0.16868900
H    1.49169000   0.22064000   0.90536500
H    2.70453900   0.14344600  -0.47918200
C    0.84761500  -0.91946300  -0.86495000
H    1.27567000  -1.30810400  -1.79312600
C   -0.29550800  -1.59007500  -0.37460500
H   -0.58450900  -2.48831800  -0.93089800
C   -1.03513600  -1.27027500   0.74867500
H   -1.71604400  -2.04678400   1.11666700
C   -1.11861600  -0.03164400   1.41220700
H   -1.63052000  -0.04877000   2.37932900
C   -0.89977700   1.23907000   0.86963900
H   -1.34644300   2.07199400   1.42243500
C   -0.35163500   1.54401300  -0.37619000
H   -0.70533300   2.45613900  -0.87126000
C    0.69774800   0.86201900  -1.00932300
H    0.97877900   1.14783500  -2.02679300
17
Energy:  -309.3491744683
C    1.65702100   0.08361900  -0.16684500
H    1.48847400   0.22687800   0.90570500
H    2.70381000   0.14539100  -0.47590300
C    0.84800900  -0.91862100  -0.86241400
H    1.27940200  -1.30876200  -1.78968800
C   -0.29649200  -1.59016800  -0.37604400
H   -0.58521300  -2.48657500  -0.93400700
C   -1.03763300  -1.27063300   0.74752500
H   -1.72004500  -2.04562500   1.11275700
C   -1.11656400  -0.03252300   1.41172100
H   -1.62575400  -0.04991600   2.38152300
C   -0.89772300   1.23818700   0.87057200
H   -1.34006500   2.07148600   1.42498200
C   -0.35252800   1.54280500  -0.37764200
H   -0.70637200   2.45458500  -0.87188300
C    0.69552900   0.85955200  -1.01115300
H    0.97622100   1.14398500  -2.02990800
17
Energy:  -309.3490303579
C    1.65725000   0.08467500  -0.16506300
H    1.48671900   0.23026400   0.90518900
H    2.70301300   0.14639900  -0.47400400
C    0.84837600  -0.91774200  -0.86048300
H    1.28177300  -1.30940000  -1.78845000
C   -0.29801700  -1.59039700  -0.37614200
H   -0.58556000  -2.48554300  -0.93574600
C   -1.03894900  -1.27153900   0.74650700
H   -1.72191400  -2.04463700   1.11041000
C   -1.11531700  -0.03312600   1.41123200
H   -1.62325800  -0.05057200   2.38306000
C   -0.89635500   1.23823900   0.87062800
H   -1.33641400   2.07103600   1.42627200
C   -0.35361500   1.54244600  -0.37800900
H   -0.70682400   2.45346300  -0.87211900
C    0.69424700   0.85814800  -1.01185300
H    0.97492200   1.14195300  -2.03212800
17
Energy:  -309.3485529509
C    1.65370900   0.08770300  -0.16330600
H    1.47981400   0.24406300   0.90784000
H    2.70289000   0.14984600  -0.46708300
C    0.84928800  -0.91722500  -0.85778200
H    1.28797200  -1.30903400  -1.77839900
C   -0.29858200  -1.58896400  -0.37889300
H   -0.58716400  -2.48254400  -0.94262600
C   -1.04227400  -1.27088700   0.74239100
H   -1.73147100  -2.04411300   1.10373300
C   -1.11245900  -0.03497700   1.41284500
H   -1.61229400  -0.05293200   2.38591300
C   -0.89182800   1.23517300   0.87152400
H   -1.32382600   2.07079500   1.43210000
C   -0.35420800   1.53851500  -0.38086300
H   -0.70909900   2.45165400  -0.87385200
C    0.69061100   0.85310300  -1.01755000
H    0.96899800   1.13348900  -2.03669100
17
Energy:  -309.3479948466
C    1.65233600   0.09157000  -0.15854500
H    1.47244800   0.25874000   0.90806400
H    2.70137000   0.15252800  -0.45909500
C    0.84995200  -0.91459900  -0.85247500
H    1.29582500  -1.30955700  -1.77062300
C   -0.30231200  -1.58865300  -0.38051200
H   -0.58852400  -2.47889100  -0.94986500
C   -1.04677000  -1.27256500   0.73836800
H   -1.73963900  -2.04214200   1.09598200
C   -1.10846900  -0.03720200   1.41240200
H   -1.60119600  -0.05563500   2.39044000
C   -0.88686300   1.23358800   0.87189700
H   -1.30990600   2.06944700   1.43726300
C   -0.35670900   1.53578100  -0.38303400
H   -0.71070900   2.44869100  -0.87508800
C    0.68609300   0.84756700  -1.02204900
H    0.96315000   1.12499700  -2.04382900
17
Energy:  -309.3473814455
C    1.64950900   0.09518200  -0.15519800
H    1.46474200   0.27443700   0.90952200
H    2.70070400   0.15433100  -0.45056700
C    0.85025600  -0.91253800  -0.84844300
H    1.30278200  -1.30881400  -1.76088300
C   -0.30440400  -1.58761300  -0.38314400
H   -0.58986000  -2.47544000  -0.95738800
C   -1.05087000  -1.27299300   0.73432000
H   -1.74850600  -2.04133600   1.08901100
C   -1.10499100  -0.03942700   1.41298900
H   -1.58924500  -0.05844300   2.39405900
C   -0.88211900   1.23082400   0.87240800
H   -1.29613000   2.06851600   1.44271200
C   -0.35796400   1.53231600  -0.38591800
H   -0.71234800   2.44654500  -0.87653400
C    0.68192300   0.84200200  -1.02764200
H    0.95659900   1.11611400  -2.05000500
17
Energy:  -309.3467218211
C    1.64750000   0.09900500  -0.15078300
H    1.45704300   0.29035400   0.90992400
H    2.69968000   0.15493200  -0.44142200
C    0.85017400  -0.90945500  -0.84352300
H    1.31009400  -1.30807400  -1.75221700
C   -0.30773500  -1.58692500  -0.38529300
H   -0.59090800  -2.47185400  -0.96483500
C   -1.05527300  -1.27446500   0.73033500
H   -1.75628300  -2.04012000   1.08205500
C   -1.10112000  -0.04177100   1.41246800
H   -1.57750500  -0.06136200   2.39833400
C   -0.87740000   1.22878400   0.87261200
H   -1.28232200   2.06713300   1.44759300
C   -0.35983800   1.52934500  -0.38839500
H   -0.71358100   2.44419700  -0.87772100
C    0.67762200   0.83642700  -1.03268800
H    0.94993100   1.10751200  -2.05714600
17
Energy:  -309.3460144748
C    1.64502200   0.10271700  -0.14694500
H    1.44926400   0.30681100   0.91085300
H    2.69920000   0.15424700  -0.43170200
C    0.84980900  -0.90656100  -0.83954300
H    1.31674900  -1.30639800  -1.74266700
C   -0.31032100  -1.58609600  -0.38811300
H   -0.59172500  -2.46841200  -0.97228400
C   -1.05945000  -1.27519400   0.72653100
H   -1.76406000  -2.03963300   1.07573700
C   -1.09776000  -0.04404200   1.41290000
H   -1.56525100  -0.06432900   2.40159900
C   -0.87290400   1.22606400   0.87287600
H   -1.26887900   2.06599700   1.45242800
C   -0.36109100   1.52635700  -0.39131700
H   -0.71468100   2.44225300  -0.87891900
C    0.67349400   0.83097200  -1.03822500
H    0.94266100   1.09891100  -2.06390800
17
Energy:  -309.3452567849
C    1.64277400   0.10644600  -0.14262300
H    1.44163000   0.32339600   0.91102800
H    2.69866900   0.15212100  -0.42128200
C    0.84891900  -0.90284500  -0.83481200
H    1.32360700  -1.30452500  -1.73397300
C   -0.31353800  -1.58499900  -0.39030600
H   -0.59228400  -2.46520100  -0.97975400
C   -1.06356300  -1.27649800   0.72263800
H   -1.77095300  -2.03901800   1.06959900
C   -1.09389400  -0.04641400   1.41181900
H   -1.55339400  -0.06736200   2.40567800
C   -0.86855100   1.22395200   0.87294800
H   -1.25560300   2.06456500   1.45673800
C   -0.36257900   1.52344700  -0.39374400
H   -0.71556400   2.44038700  -0.87999700
C    0.66943900   0.82562000  -1.04343000
H    0.93496300   1.09059300  -2.07123000
17
Energy:  -309.3444440220
C    1.64047300   0.11005800  -0.13854800
H    1.43410800   0.34030200   0.91140700
H    2.69850100   0.14849300  -0.41014800
C    0.84798100  -0.89910600  -0.83099100
H    1.32987500  -1.30182100  -1.72472000
C   -0.31630800  -1.58440900  -0.39349800
H   -0.59244400  -2.46183900  -0.98688900
C   -1.06771300  -1.27749500   0.71909400
H   -1.77749800  -2.03878700   1.06392500
C   -1.09067800  -0.04859400   1.41205200
H   -1.54110500  -0.07040600   2.40859300
C   -0.86427500   1.22146700   0.87280400
H   -1.24280700   2.06341400   1.46096600
C   -0.36379800   1.52082000  -0.39638400
H   -0.71631600   2.43872100  -0.88101500
C    0.66554100   0.82040600  -1.04895600
H    0.92654100   1.08244200  -2.07839400
17
Energy:  -309.3435704378
C    1.63830800   0.11372100  -0.13421900
H    1.42686900   0.35723700   0.91130300
H    2.69847000   0.14328800  -0.39823200
C    0.84652800  -0.89492000  -0.82690400
H    1.33623000  -1.29878500  -1.71612900
C   -0.31960200  -1.58305700  -0.39555600
H   -0.59236900  -2.45904600  -0.99420400
C   -1.07126300  -1.27865600   0.71504300
H   -1.78343100  -2.03869100   1.05854900
C   -1.08705100  -0.05089500   1.41097700
H   -1.52922200  -0.07344100   2.41209900
C   -0.86029300   1.21948800   0.87276200
H   -1.23029400   2.06205900   1.46467800
C   -0.36493200   1.51817500  -0.39885500
H   -0.71694100   2.43716400  -0.88192300
C    0.66158200   0.81539800  -1.05411900
H    0.91748800   1.07462600  -2.08597100
17
Energy:  -309.3426311799
C    1.63619300   0.11706900  -0.13008600
H    1.41995900   0.37422800   0.91120800
H    2.69867700   0.13657700  -0.38553900
C    0.84490300  -0.89045300  -0.82322800
H    1.34214900  -1.29511200  -1.70743600
C   -0.32216500  -1.58240400  -0.39902900
H   -0.59185100  -2.45599100  -1.00096900
C   -1.07522300  -1.27963900   0.71184600
H   -1.78874800  -2.03866000   1.05344400
C   -1.08378000  -0.05291600   1.41052900
H   -1.51723600  -0.07643100   2.41484700
C   -0.85643500   1.21718900   0.87256900
H   -1.21834200   2.06102400   1.46824400
C   -0.36603700   1.51582400  -0.40128100
H   -0.71749800   2.43577900  -0.88277800
C    0.65787700   0.81045400  -1.05960600
H    0.90763300   1.06712700  -2.09343500
17
Energy:  -309.3416202917
C    1.63423100   0.12049300  -0.12577100
H    1.41352000   0.39105600   0.91079400
H    2.69906900   0.12835400  -0.37207600
C    0.84309800  -0.88579000  -0.81986500
H    1.34799600  -1.29104300  -1.69922700
C   -0.32541200  -1.58103500  -0.40107600
H   -0.59108300  -2.45354400  -1.00787200
C   -1.07817600  -1.28070200   0.70772700
H   -1.79362900  -2.03885100   1.04869600
C   -1.08048400  -0.05504000   1.40966100
H   -1.50555600  -0.07931000   2.41765900
C   -0.85278300   1.21547900   0.87223000
H   -1.20679700   2.05989500   1.47137000
C   -0.36706600   1.51343100  -0.40351100
H   -0.71798900   2.43448800  -0.88352200
C    0.65404500   0.80574500  -1.06478000
H    0.89709600   1.06003700  -2.10113700
17
Energy:  -309.3405311799
C    1.63243500   0.12353700  -0.12166100
H    1.40758900   0.40771700   0.91036500
H    2.69961800   0.11876300  -0.35783600
C    0.84097900  -0.88076700  -0.81664300
H    1.35353900  -1.28652900  -1.69124300
C   -0.32766900  -1.58030700  -0.40464600
H   -0.58991700  -2.45086900  -1.01418400
C   -1.08172000  -1.28155400   0.70481000
H   -1.79782300  -2.03893900   1.04408300
C   -1.07723900  -0.05680900   1.40872200
H   -1.49405200  -0.08208900   2.42011300
C   -0.84943500   1.21344400   0.87204600
H   -1.19582300   2.05905300   1.47429000
C   -0.36807400   1.51130600  -0.40584200
H   -0.71845400   2.43330700  -0.88415900
C    0.65032500   0.80102100  -1.07016700
H    0.88579800   1.05338000  -2.10874900
17
Energy:  -309.3393584385
C    1.63081200   0.12657200  -0.11738300
H    1.40229600   0.42402800   0.90970900
H    2.70034000   0.10787000  -0.34288900
C    0.83892200  -0.87567500  -0.81399300
H    1.35890800  -1.28163600  -1.68365200
C   -0.33069400  -1.57892200  -0.40661000
H   -0.58852000  -2.44875200  -1.02057500
C   -1.08400100  -1.28249000   0.70068600
H   -1.80168900  -2.03922400   1.03981800
C   -1.07420800  -0.05869100   1.40792100
H   -1.48281900  -0.08467700   2.42233200
C   -0.84621200   1.21205500   0.87145200
H   -1.18531900   2.05820700   1.47687100
C   -0.36914300   1.50908300  -0.40783200
H   -0.71893300   2.43226200  -0.88469900
C    0.64645700   0.79645500  -1.07539700
H    0.87388100   1.04719800  -2.11646100
17
Energy:  -309.3380938037
C    1.62948300   0.12916000  -0.11330600
H    1.39764200   0.44000700   0.90908600
H    2.70118500   0.09583200  -0.32720500
C    0.83650200  -0.87017700  -0.81136100
H    1.36404400  -1.27644900  -1.67645200
C   -0.33251200  -1.57820100  -0.41022500
H   -0.58678600  -2.44638700  -1.02635300
C   -1.08703300  -1.28315500   0.69806900
H   -1.80486800  -2.03928500   1.03557900
C   -1.07105400  -0.06013400   1.40665400
H   -1.47190700  -0.08712400   2.42440700
C   -0.84345000   1.21029700   0.87125300
H   -1.17535800   2.05761000   1.47925400
C   -0.37019800   1.50710700  -0.41013500
H   -0.71943800   2.43129500  -0.88507800
C    0.64249500   0.79173400  -1.08079500
H    0.86132900   1.04153500  -2.12409200
17
Energy:  -309.3367336495
C    1.62839400   0.13161500  -0.10899900
H    1.39373300   0.45548800   0.90832600
H    2.70224300   0.08276700  -0.31092900
C    0.83432300  -0.86469000  -0.80943700
H    1.36893800  -1.27093800  -1.66959100
C   -0.33522600  -1.57680200  -0.41195600
H   -0.58487300  -2.44455500  -1.03221100
C   -1.08855200  -1.28393900   0.69394400
H   -1.80782900  -2.03951800   1.03167100
C   -1.06825400  -0.06171200   1.40587600
H   -1.46126700  -0.08933400   2.42610000
C   -0.84076200   1.20928200   0.87040900
H   -1.16588500   2.05704400   1.48141700
C   -0.37145200   1.50497900  -0.41199500
H   -0.72005400   2.43053600  -0.88536800
C    0.63827300   0.78703500  -1.08621200
H    0.84832600   1.03640700  -2.13174600
17
Energy:  -309.3352676897
C    1.62777100   0.13342200  -0.10481500
H    1.39052100   0.47053400   0.90769500
H    2.70349600   0.06882100  -0.29402200
C    0.83176400  -0.85872700  -0.80741500
H    1.37362600  -1.26525500  -1.66320400
C   -0.33651900  -1.57616100  -0.41556300
H   -0.58268200  -2.44240300  -1.03742400
C   -1.09103100  -1.28439400   0.69166900
H   -1.81010100  -2.03942200   1.02768600
C   -1.06520300  -0.06274500   1.40436800
H   -1.45104000  -0.09139700   2.42779800
C   -0.83867200   1.20781800   0.87016500
H   -1.15692400   2.05669200   1.48344000
C   -0.37272300   1.50312500  -0.41439500
H   -0.72078500   2.42989300  -0.88546500
C    0.63368900   0.78198000  -1.09185200
H    0.83489100   1.03188400  -2.13936600
17
Energy:  -309.3336944206
C    1.62752700   0.13482000  -0.10019400
H    1.38806800   0.48499400   0.90702800
H    2.70513000   0.05415400  -0.27673000
C    0.82959900  -0.85283100  -0.80619000
H    1.37799800  -1.25930300  -1.65710100
C   -0.33890600  -1.57474700  -0.41691600
H   -0.58037300  -2.44079300  -1.04275100
C   -1.09171500  -1.28501900   0.68752600
H   -1.81226400  -2.03950900   1.02403900
C   -1.06260900  -0.06395600   1.40364200
H   -1.44111000  -0.09321200   2.42903800
C   -0.83661100   1.20722200   0.86908200
H   -1.14845900   2.05636600   1.48536300
C   -0.37431200   1.50110300  -0.41628400
H   -0.72175700   2.42959300  -0.88550700
C    0.62860500   0.77681700  -1.09772700
H    0.82126700   1.02796400  -2.14701700
17
Energy:  -309.3320000027
C    1.62797900   0.13511300  -0.09545900
H    1.38627100   0.49899000   0.90661400
H    2.70718700   0.03890100  -0.25903500
C    0.82705700  -0.84633900  -0.80472700
H    1.38216800  -1.25330900  -1.65154400
C   -0.33966200  -1.57423200  -0.42047100
H   -0.57783100  -2.43875800  -1.04735900
C   -1.09363700  -1.28527100   0.68563600
H   -1.81370800  -2.03917200   1.02023000
C   -1.05964600  -0.06450300   1.40197300
H   -1.43169300  -0.09490500   2.43041800
C   -0.83525100   1.20604000   0.86883000
H   -1.14050400   2.05621900   1.48720600
C   -0.37597700   1.49948500  -0.41892100
H   -0.72295600   2.42950400  -0.88537500
C    0.62276700   0.77115700  -1.10396000
H    0.80751400   1.02474400  -2.15475700
17
Energy:  -309.3301840979
C    1.62898500   0.13453200  -0.08988900
H    1.38515300   0.51236800   0.90621600
H    2.70987700   0.02326900  -0.24130500
C    0.82508300  -0.83997400  -0.80414400
H    1.38592800  -1.24712300  -1.64621600
C   -0.34176100  -1.57276100  -0.42131600
H   -0.57523800  -2.43731600  -1.05211400
C   -1.09342800  -1.28577000   0.68141300
H   -1.81517300  -2.03908400   1.01682000
C   -1.05724000  -0.06532600   1.40138700
H   -1.42263600  -0.09635600   2.43130400
C   -0.83383600   1.20587000   0.86759400
H   -1.13307000   2.05606600   1.48901500
C   -0.37804300   1.49773500  -0.42095500
H   -0.72451200   2.42991600  -0.88527600
C    0.61604900   0.76544900  -1.11065500
H    0.79393900   1.02217100  -2.16257900
17
Energy:  -309.3282263233
C    1.63088500   0.13225200  -0.08389900
H    1.38455400   0.52531600   0.90613400
H    2.71321800   0.00738200  -0.22353300
C    0.82276600  -0.83285800  -0.80314700
H    1.38948600  -1.24107400  -1.64152300
C   -0.34194400  -1.57237200  -0.42485300
H   -0.57245700  -2.43533500  -1.05601600
C   -1.09484500  -1.28585700   0.67994100
H   -1.81588900  -2.03851000   1.01321200
C   -1.05435400  -0.06535000   1.39967600
H   -1.41420300  -0.09772600   2.43244900
C   -0.83316100   1.20486500   0.86747300
H   -1.12617300   2.05606100   1.49074700
C   -0.38023500   1.49661300  -0.42390200
H   -0.72633900   2.43056800  -0.88505900
C    0.60814300   0.75936500  -1.11783500
H    0.78062500   1.02032400  -2.17056700
17
Energy:  -309.3261272738
C    1.63343100   0.12888800  -0.07665800
H    1.38450100   0.53764000   0.90594500
H    2.71727800  -0.00855900  -0.20611200
C    0.82115900  -0.82603400  -0.80315100
H    1.39258300  -1.23494700  -1.63702500
C   -0.34381000  -1.57078200  -0.42510200