10
Energy: -2691.4265043836
C    0.00021400  -0.01712900  -0.00785500
C    1.34533800   0.00771200  -0.01247200
C    2.18253400   0.06122500   1.20324000
Br   2.80205000   3.04672500   2.00255400
H    1.87100000   0.04961800  -0.97452800
H   -0.57447200  -0.01230800  -0.93784800
H   -0.56629600  -0.02949500   0.92961600
H    1.68086900  -0.29161700   2.11617900
H    3.17673100  -0.39730500   1.09520400
H    2.42356200   1.17293400   1.41349400
10
Energy: -2691.4264601767
C    0.00081600  -0.01622300  -0.00743300
C    1.34562000   0.00698400  -0.01225800
C    2.18272900   0.06049200   1.20339100
Br   2.79916700   3.04013500   1.99953700
H    1.87164800   0.04927500  -0.97408200
H   -0.57413500  -0.00970800  -0.93739700
H   -0.56580500  -0.02856200   0.93011200
H    1.68175300  -0.29137300   2.11697600
H    3.17839300  -0.39462000   1.09586800
H    2.42134500   1.17396000   1.41287100
10
Energy: -2691.4264070663
C    0.00105300  -0.01534700  -0.00707200
C    1.34626200   0.00631000  -0.01204400
C    2.18292300   0.05975500   1.20351700
Br   2.79631200   3.03327100   1.99649800
H    1.87225900   0.04901100  -0.97358900
H   -0.57375100  -0.00715900  -0.93691000
H   -0.56533100  -0.02771000   0.93060200
H    1.68260300  -0.29095100   2.11781800
H    3.18000500  -0.39185300   1.09654800
H    2.41919700   1.17503400   1.41221800
10
Energy: -2691.4263556916
C    0.00077200  -0.01463200  -0.00663400
C    1.34726900   0.00578200  -0.01159600
C    2.18272900   0.05931400   1.20339100
Br   2.79393900   3.02731300   1.99393200
H    1.87279200   0.04885100  -0.97324100
H   -0.57340300  -0.00507200  -0.93649100
H   -0.56484700  -0.02705500   0.93084600
H    1.68327700  -0.29049000   2.11860900
H    3.18154100  -0.38957900   1.09710700
H    2.41746200   1.17592900   1.41166000
10
Energy: -2691.4263261814
C    0.00117400  -0.01416600  -0.00624300
C    1.34735500   0.00542600  -0.01104900
C    2.18243800   0.05913800   1.20316400
Br   2.79242200   3.02340300   1.99227800
H    1.87324300   0.04877700  -0.97318000
H   -0.57326800  -0.00374700  -0.93634500
H   -0.56456200  -0.02665700   0.93100300
H    1.68367400  -0.29017200   2.11917200
H    3.18267600  -0.38816200   1.09747200
H    2.41637900   1.17652000   1.41131100
10
Energy: -2691.4261963086
C    0.00199000  -0.01266700  -0.00584100
C    1.34799600   0.00455700  -0.01119500
C    2.18328000   0.05754500   1.20377700
Br   2.78735000   3.00925300   1.98658600
H    1.87422300   0.04865300  -0.97198200
H   -0.57252900   0.00043700  -0.93546400
H   -0.56404500  -0.02557300   0.93200000
H    1.68494500  -0.28823100   2.12071800
H    3.18515700  -0.38247800   1.09868300
H    2.41316300   1.17886700   1.41030500
10
Energy: -2691.4260458831
C    0.00258200  -0.01120900  -0.00494900
C    1.34883500   0.00387500  -0.00999200
C    2.18282100   0.05666200   1.20332700
Br   2.78235800   2.99431700   1.98083800
H    1.87549100   0.04865100  -0.97137000
H   -0.57192100   0.00428500  -0.93479000
H   -0.56345000  -0.02473700   0.93257400
H    1.68587000  -0.28583100   2.12254800
H    3.18840700  -0.37690900   1.09973100
H    2.41053600   1.18125800   1.40966800
10
Energy: -2691.4258727865
C    0.00317200  -0.00989300  -0.00424400
C    1.34950800   0.00350100  -0.01000000
C    2.18315100   0.05536300   1.20363500
Br   2.77759400   2.97921200   1.97523000
H    1.87645400   0.04863500  -0.97025300
H   -0.57129700   0.00769100  -0.93410000
H   -0.56317100  -0.02413400   0.93323900
H    1.68659500  -0.28290000   2.12398200
H    3.19090600  -0.37107200   1.10057800
H    2.40861800   1.18395900   1.40951700
10
Energy: -2691.4256730229
C    0.00337100  -0.00872900  -0.00370100
C    1.35051700   0.00327700  -0.00865100
C    2.18265400   0.05468600   1.20287600
Br   2.77298900   2.96385600   1.96970000
H    1.87761600   0.04861000  -0.96966100
H   -0.57071400   0.01073400  -0.93334300
H   -0.56295900  -0.02371700   0.93371500
H    1.68692700  -0.27980900   2.12550300
H    3.19372500  -0.36551300   1.10121500
H    2.40740500   1.18696600   1.40993000
10
Energy: -2691.4254395662
C    0.00419300  -0.00770000  -0.00297400
C    1.35086900   0.00300800  -0.00840200
C    2.18281800   0.05357600   1.20291700
Br   2.76848100   2.94813800   1.96419200
H    1.87852800   0.04855100  -0.96862400
H   -0.57034900   0.01348700  -0.93282600
H   -0.56300800  -0.02345100   0.93417700
H    1.68704100  -0.27647900   2.12652700
H    3.19598000  -0.35995000   1.10158200
H    2.40697700   1.19118100   1.41101600
10
Energy: -2691.4251721964
C    0.00371500  -0.00663200  -0.00250600
C    1.35227700   0.00224500  -0.00746400
C    2.18242400   0.05256000   1.20228400
Br   2.76427000   2.93295800   1.95898100
H    1.87945700   0.04860100  -0.96796300
H   -0.57003000   0.01582700  -0.93230000
H   -0.56306400  -0.02333600   0.93453700
H    1.68664100  -0.27353400   2.12767400
H    3.19850100  -0.35520800   1.10160200
H    2.40734100   1.19688000   1.41274000
10
Energy: -2691.4248660208
C    0.00435600  -0.00533200  -0.00197700
C    1.35220000   0.00095800  -0.00725700
C    2.18207900   0.04920700   1.20160100
Br   2.76043400   2.91883100   1.95421100
H    1.88041200   0.04882200  -0.96739600
H   -0.56994500   0.01768600  -0.93220900
H   -0.56340300  -0.02336300   0.93517500
H    1.68576800  -0.27089100   2.12889700
H    3.20096300  -0.35107000   1.10132700
H    2.40866600   1.20551400   1.41521200
10
Energy: -2691.4245137142
C    0.00241600  -0.00401800  -0.00159500
C    1.35440700  -0.00019000  -0.00679000
C    2.18052700   0.04397600   1.19978400
Br   2.75740100   2.90765200   1.95046000
H    1.88112000   0.04910400  -0.96690600
H   -0.56953800   0.01892200  -0.93181300
H   -0.56343900  -0.02343500   0.93544700
H    1.68477300  -0.26876600   2.13026700
H    3.20343600  -0.34792000   1.10094200
H    2.41042700   1.21503500   1.41778900
10
Energy: -2691.4242308522
C    0.00064800  -0.00317900  -0.00142900
C    1.35631500  -0.00083100  -0.00590100
C    2.17896300   0.04015800   1.19794000
Br   2.75571700   2.90148200   1.94839200
H    1.88160500   0.04930500  -0.96682700
H   -0.56920100   0.01952200  -0.93147300
H   -0.56336100  -0.02348700   0.93551200
H    1.68409900  -0.26757700   2.13125500
H    3.20511000  -0.34622100   1.10069800
H    2.41163600   1.22118900   1.41941700
10
Energy: -2691.4234351980
C    0.00287400  -0.00105600  -0.00031900
C    1.35690200  -0.00049800  -0.00439000
C    2.17413800   0.02213500   1.19185300
Br   2.75239100   2.89003300   1.94451600
H    1.88224200   0.04963200  -0.96549600
H   -0.56886600   0.02019900  -0.93148800
H   -0.56385400  -0.02356500   0.93623600
H    1.68321300  -0.26361500   2.13267500
H    3.20730400  -0.34098000   1.10053400
H    2.41518600   1.23807700   1.42346500
10
Energy: -2691.4210329099
C    0.00000000   0.00000000   0.00000000
C    1.36288000   0.00000000   0.00000000
C    2.16766000   0.00000000   1.18317000
Br   2.75248000   2.89052000   1.94462000
H    1.88612000   0.04917000  -0.96225000
H   -0.56975000   0.02365000  -0.93207000
H   -0.56629000  -0.02511000   0.93647000
H    1.68375000  -0.23702000   2.13802000
H    3.21661000  -0.30466000   1.10232000
H    2.43791000   1.38032000   1.45250000
10
Energy: -2691.4209798521
C   -0.00287400   0.00105600   0.00031900
C    1.36885800   0.00049800   0.00439000
C    2.16118200  -0.02213500   1.17448700
Br   2.75256900   2.89100700   1.94472400
H    1.88999800   0.04870800  -0.95900400
H   -0.57063400   0.02710100  -0.93265200
H   -0.56872600  -0.02665500   0.93670400
H    1.68428700  -0.21042500   2.14336500
H    3.22591600  -0.26834000   1.10410600
H    2.46063400   1.52256300   1.48153500
10
Energy: -2691.4222145875
C   -0.00338900   0.00285100   0.00072700
C    1.36755300  -0.00241300   0.00221700
C    2.15845700  -0.05546900   1.17076400
Br   2.76211300   2.93024200   1.95761600
H    1.89067900   0.04822500  -0.95863000
H   -0.57171800   0.02809100  -0.93396500
H   -0.57054300  -0.02731400   0.93697800
H    1.68490500  -0.20843300   2.14214000
H    3.22673700  -0.26442800   1.10410900
H    2.45641500   1.51202600   1.47602000
10
Energy: -2691.4224256066
C   -0.00509600   0.00322100   0.00021400
C    1.36831800  -0.00518600   0.00291200
C    2.15770700  -0.05989400   1.16876300
Br   2.76238100   2.92951900   1.95727500
H    1.89093200   0.04796700  -0.95917500
H   -0.57205300   0.02898600  -0.93400200
H   -0.57091600  -0.02764100   0.93672100
H    1.68433100  -0.20953800   2.14303800
H    3.22807000  -0.26469200   1.10384700
H    2.45753700   1.52063700   1.47838300
10
Energy: -2691.4229688175
C   -0.00815100   0.00379100  -0.00076700
C    1.36931000  -0.01325100   0.00320500
C    2.15585000  -0.07879200   1.16462000
Br   2.76446300   2.93253200   1.95798400
H    1.89124200   0.04633300  -0.95995000
H   -0.57376200   0.03241000  -0.93488700
H   -0.57266900  -0.02875600   0.93603100
H    1.68352300  -0.21298300   2.14373700
H    3.23073900  -0.26494900   1.10294800
H    2.46066400   1.54704300   1.48505500
10
Energy: -2691.4235346858
C   -0.00945500   0.00302700  -0.00158400
C    1.36935800  -0.02004100   0.00292700
C    2.15366200  -0.10310400   1.16081400
Br   2.76919300   2.94762700   1.96281300
H    1.89090500   0.04266900  -0.95962100
H   -0.57544200   0.03718900  -0.93556900
H   -0.57468400  -0.03014700   0.93479300
H    1.68379500  -0.21751400   2.14237900
H    3.23139000  -0.26507000   1.10194100
H    2.46248600   1.56874200   1.48908200
10
Energy: -2691.4240346676
C   -0.01178200   0.00242100  -0.00270000
C    1.36861100  -0.02882200   0.00220000
C    2.15209000  -0.12106800   1.15814400
Br   2.77290000   2.95828600   1.96618700
H    1.89105100   0.03816000  -0.96045900
H   -0.57687000   0.04288500  -0.93643700
H   -0.57689500  -0.03210900   0.93389300
H    1.68317300  -0.22481800   2.14227000
H    3.23354900  -0.26728500   1.10030700
H    2.46538300   1.59572900   1.49457100
10
Energy: -2691.4244834707
C   -0.01233200   0.00083900  -0.00354100
C    1.36857400  -0.03596900   0.00231400
C    2.15089500  -0.13916200   1.15557400
Br   2.77865600   2.97835500   1.97279100
H    1.89012100   0.03204500  -0.96027200
H   -0.57846400   0.04925000  -0.93740200
H   -0.57918100  -0.03430600   0.93251300
H    1.68381000  -0.23314700   2.14005100
H    3.23265500  -0.26988700   1.09877000
H    2.46647400   1.61536000   1.49717900
10
Energy: -2691.4248351683
C   -0.01444500  -0.00035800  -0.00436800
C    1.36638400  -0.04360600   0.00127900
C    2.15000900  -0.15015200   1.15346800
Br   2.78188700   2.98769700   1.97571200
H    1.89016500   0.02592000  -0.96148600
H   -0.57890500   0.05547500  -0.93786000
H   -0.58105200  -0.03675600   0.93112800
H    1.68298300  -0.24285400   2.14067700
H    3.23484600  -0.27424000   1.09683000
H    2.46933900   1.64225400   1.50259600
10
Energy: -2691.4249694837
C   -0.01386300  -0.00093700  -0.00468200
C    1.36657900  -0.04542500   0.00199600
C    2.14985500  -0.15468100   1.15276700
Br   2.78411400   2.99591400   1.97846300
H    1.88967700   0.02368100  -0.96153800
H   -0.57951900   0.05748900  -0.93846600
H   -0.58194100  -0.03756800   0.93095400
H    1.68343400  -0.24578200   2.13957100
H    3.23375700  -0.27543900   1.09629100
H    2.46911600   1.64612600   1.50262100
10
Energy: -2691.4250406475
C   -0.01479200  -0.00120800  -0.00501300
C    1.36720000  -0.04661600   0.00177800
C    2.14947700  -0.15692800   1.15253000
Br   2.78508000   2.99924400   1.97954900
H    1.88934400   0.02234000  -0.96142300
H   -0.57947600   0.05867000  -0.93837000
H   -0.58226900  -0.03806500   0.93062100
H    1.68357100  -0.24765600   2.13923300
H    3.23375100  -0.27633100   1.09589600
H    2.46932400   1.64993000   1.50317400
10
Energy: -2691.4251282101
C   -0.01593000  -0.00159700  -0.00525400
C    1.36777200  -0.04831300   0.00124200
C    2.14909900  -0.16007200   1.15236600
Br   2.78640500   3.00376400   1.98101800
H    1.88890100   0.02042500  -0.96126600
H   -0.57946800   0.06035700  -0.93836500
H   -0.58272300  -0.03878000   0.93009400
H    1.68373600  -0.25035700   2.13878100
H    3.23374700  -0.27763900   1.09531700
H    2.46967000   1.65559000   1.50404300
10
Energy: -2691.4252221240
C   -0.01603400  -0.00201000  -0.00544200
C    1.36734500  -0.05007700   0.00123700
C    2.14893900  -0.16319000   1.15184000
Br   2.78773200   3.00826700   1.98247600
H    1.88868100   0.01848600  -0.96146500
H   -0.57964900   0.06209200  -0.93862900
H   -0.58332000  -0.03952800   0.92972400
H    1.68378400  -0.25317200   2.13850200
H    3.23368400  -0.27902900   1.09475100
H    2.47004600   1.66154000   1.50498200
10
Energy: -2691.4253103536
C   -0.01633300  -0.00242300  -0.00567600
C    1.36709000  -0.05186900   0.00116400
C    2.14873100  -0.16631100   1.15135900
Br   2.78909700   3.01291000   1.98397800
H    1.88841500   0.01649700  -0.96162800
H   -0.57978100   0.06385300  -0.93884900
H   -0.58391800  -0.04030000   0.92933800
H    1.68385000  -0.25606900   2.13820200
H    3.23364300  -0.28050800   1.09415300
H    2.47041600   1.66759900   1.50593600
10
Energy: -2691.4253965680
C   -0.01657300  -0.00283700  -0.00593100
C    1.36678300  -0.05366000   0.00116700
C    2.14852300  -0.16938900   1.15082800
Br   2.79047400   3.01759800   1.98549100
H    1.88816200   0.01450300  -0.96182900
H   -0.57991100   0.06560900  -0.93907600
H   -0.58453100  -0.04108000   0.92896800
H    1.68390900  -0.25899700   2.13792200
H    3.23359800  -0.28204300   1.09354600
H    2.47077600   1.67367500   1.50689100
10
Energy: -2691.4254717085
C   -0.01711000  -0.00324800  -0.00610400
C    1.36672200  -0.05543200   0.00087300
C    2.14831800  -0.17245700   1.15051400
Br   2.79186300   3.02233300   1.98701800
H    1.88782600   0.01248800  -0.96190200
H   -0.57999300   0.06736100  -0.93927900
H   -0.58510200  -0.04186600   0.92851900
H    1.68400900  -0.26194800   2.13757600
H    3.23354700  -0.28363200   1.09291200
H    2.47112900   1.67977900   1.50784900
10
Energy: -2691.4255530724
C   -0.01720600  -0.00365700  -0.00639000
C    1.36629900  -0.05717600   0.00100000
C    2.14812400  -0.17539500   1.14991800
Br   2.79323600   3.02702200   1.98852600
H    1.88758900   0.01052300  -0.96215400
H   -0.58011000   0.06906900  -0.93951200
H   -0.58572800  -0.04264800   0.92817700
H    1.68406400  -0.26487600   2.13732000
H    3.23348000  -0.28526000   1.09230200
H    2.47146100   1.68577600   1.50878900
10
Energy: -2691.4256272996
C   -0.01783400  -0.00406300  -0.00653600
C    1.36632500  -0.05890400   0.00063600
C    2.14792400  -0.17836500   1.14966700
Br   2.79462900   3.03178700   1.99005500
H    1.88721800   0.00852400  -0.96219100
H   -0.58015400   0.07077900  -0.93970600
H   -0.58628200  -0.04343700   0.92770100
H    1.68418000  -0.26784000   2.13696100
H    3.23341500  -0.28695600   1.09164500
H    2.47179000   1.69185200   1.50974200
10
Energy: -2691.4257058907
C   -0.01802200  -0.00446400  -0.00678400
C    1.36597100  -0.06057900   0.00064400
C    2.14775000  -0.18119500   1.14918100
Br   2.79599100   3.03645300   1.99154900
H    1.88695000   0.00660400  -0.96239900
H   -0.58023500   0.07242200  -0.93993000
H   -0.58688300  -0.04421000   0.92733800
H    1.68425300  -0.27074000   2.13669100
H    3.23333900  -0.28866700   1.09102200
H    2.47209600   1.69775500   1.51066500
10
Energy: -2691.4257719741
C   -0.01845700  -0.00486500  -0.00696500
C    1.36582800  -0.06225400   0.00042000
C    2.14757300  -0.18406000   1.14885300
Br   2.79737900   3.04121500   1.99306900
H    1.88661400   0.00465900  -0.96250600
H   -0.58027900   0.07406800  -0.94014100
H   -0.58745600  -0.04499500   0.92690700
H    1.68435800  -0.27368900   2.13636700
H    3.23325200  -0.29046200   1.09036600
H    2.47239700   1.70376200   1.51160600
10
Energy: -2691.4258405153
C   -0.01867000  -0.00525900  -0.00720800
C    1.36551800  -0.06389000   0.00043200
C    2.14739100  -0.18682400   1.14836200
Br   2.79874000   3.04589100   1.99455700
H    1.88633700   0.00277800  -0.96270500
H   -0.58033900   0.07565900  -0.94036100
H   -0.58805000  -0.04576400   0.92654100
H    1.68443500  -0.27658200   2.13610000
H    3.23316400  -0.29226800   1.08973200
H    2.47268300   1.70963700   1.51252400
10
Energy: -2691.4259056139
C   -0.01904600  -0.00565500  -0.00739800
C    1.36532900  -0.06552800   0.00025600
C    2.14721800  -0.18963100   1.14800800
Br   2.80013100   3.05067600   1.99607700
H    1.88600800   0.00087500  -0.96283400
H   -0.58037100   0.07725300  -0.94057300
H   -0.58862600  -0.04654700   0.92612300
H    1.68453600  -0.27952800   2.13578800
H    3.23306400  -0.29416000   1.08906900
H    2.47296500   1.71562300   1.51345900
10
Energy: -2691.4259678649
C   -0.01929000  -0.00604500  -0.00763100
C    1.36504300  -0.06713400   0.00023200
C    2.14703700  -0.19236100   1.14755000
Br   2.80150400   3.05540500   1.99757400
H    1.88571700  -0.00097300  -0.96302200
H   -0.58040800   0.07879900  -0.94078500
H   -0.58921100  -0.04731700   0.92574400
H    1.68461900  -0.28243300   2.13551600
H    3.23296800  -0.29607700   1.08841900
H    2.47323200   1.72151600   1.51437800
10
Energy: -2691.4260282083
C   -0.01952800  -0.00643800  -0.00786500
C    1.36476000  -0.06874500   0.00020600
C    2.14685400  -0.19511100   1.14708700
Br   2.80289900   3.06021600   1.99909200
H    1.88541700  -0.00282400  -0.96320900
H   -0.58044300   0.08033900  -0.94100500
H   -0.58980700  -0.04809700   0.92536600
H    1.68470500  -0.28537700   2.13523900
H    3.23286000  -0.29807400   1.08775500
H    2.47349500   1.72749100   1.51530900
10
Energy: -2691.4260871728
C   -0.02000400  -0.00682600  -0.00801200
C    1.36464700  -0.07032900  -0.00009500
C    2.14669300  -0.19787900   1.14683300
Br   2.80430300   3.06507000   2.00061800
H    1.88505300  -0.00466500  -0.96328500
H   -0.58043900   0.08185300  -0.94120600
H   -0.59035500  -0.04887600   0.92491100
H    1.68482300  -0.28833000   2.13489900
H    3.23273900  -0.30013900   1.08706700
H    2.47375000   1.73349900   1.51624500
10
Energy: -2691.4261407910
C   -0.02015600  -0.00719800  -0.00827000
C    1.36430400  -0.07184500  -0.00001800
C    2.14651800  -0.20048100   1.14632300
Br   2.80564500   3.06971600   2.00207300
H    1.88479200  -0.00638700  -0.96351300
H   -0.58046600   0.08327400  -0.94141500
H   -0.59093000  -0.04962100   0.92457300
H    1.68489100  -0.29115300   2.13465700
H    3.23262500  -0.30215900   1.08642800
H    2.47398500   1.73923300   1.51713700
10
Energy: -2691.4261944605
C   -0.02052500  -0.00758000  -0.00844900
C    1.36412600  -0.07339600  -0.00021600
C    2.14635100  -0.20320700   1.14599000
Br   2.80704800   3.07458500   2.00359100
H    1.88445100  -0.00816300  -0.96362500
H   -0.58046400   0.08472700  -0.94162100
H   -0.59148700  -0.05039300   0.92415500
H    1.68499300  -0.29409100   2.13434300
H    3.23249300  -0.30431900   1.08574100
H    2.47422300   1.74521800   1.51806700
10
Energy: -2691.4262447681
C   -0.02074700  -0.00795100  -0.00867300
C    1.36383700  -0.07490000  -0.00023500
C    2.14617500  -0.20584100   1.14554500
Br   2.80841700   3.07934000   2.00506900
H    1.88416200  -0.00986000  -0.96381500
H   -0.58047300   0.08611300  -0.94182800
H   -0.59204700  -0.05114500   0.92378700
H    1.68507200  -0.29695500   2.13407300
H    3.23236600  -0.30647700   1.08507900
H    2.47444800   1.75105400   1.51897200
10
Energy: -2691.4262934623
C   -0.02104800  -0.00832600  -0.00886900
C    1.36361800  -0.07641100  -0.00036300
C    2.14600500  -0.20852500   1.14516700
Br   2.80981300   3.08420700   2.00657500
H    1.88384300  -0.01156300  -0.96395600
H   -0.58047200   0.08749700  -0.94203500
H   -0.59260200  -0.05190700   0.92339400
H    1.68515800  -0.29987000   2.13377400
H    3.23222400  -0.30873100   1.08439600
H    2.47467100   1.75700800   1.51989300
10
Energy: -2691.4262934623
C   -0.02104800  -0.00832600  -0.00886900
C    1.36361800  -0.07641100  -0.00036300
C    2.14600500  -0.20852500   1.14516700
Br   2.80981300   3.08420700   2.00657500
H    1.88384300  -0.01156300  -0.96395600
H   -0.58047200   0.08749700  -0.94203500
H   -0.59260200  -0.05190700   0.92339400
H    1.68515800  -0.29987000   2.13377400
H    3.23222400  -0.30873100   1.08439600
H    2.47467100   1.75700800   1.51989300
10
Energy: -2691.4262934623
C   -0.02104800  -0.00832600  -0.00886900
C    1.36361800  -0.07641100  -0.00036300
C    2.14600500  -0.20852500   1.14516700
Br   2.97001723   3.35397731   2.14962970
H    1.88384300  -0.01156300  -0.96395600
H   -0.58047200   0.08749700  -0.94203500
H   -0.59260200  -0.05190700   0.92339400
H    1.68515800  -0.29987000   2.13377400
H    3.23222400  -0.30873100   1.08439600
H    2.63487523   2.02677831   1.66294770
10
Energy: -2691.4262934623
C   -0.02104800  -0.00832600  -0.00886900
C    1.36361800  -0.07641100  -0.00036300
C    2.14600500  -0.20852500   1.14516700
Br   3.13022147   3.62374763   2.29268439
H    1.88384300  -0.01156300  -0.96395600
H   -0.58047200   0.08749700  -0.94203500
H   -0.59260200  -0.05190700   0.92339400
H    1.68515800  -0.29987000   2.13377400
H    3.23222400  -0.30873100   1.08439600
H    2.79507947   2.29654863   1.80600239
10
Energy: -2691.4262934623
C   -0.02104800  -0.00832600  -0.00886900
C    1.36361800  -0.07641100  -0.00036300
C    2.14600500  -0.20852500   1.14516700
Br   3.29042570   3.89351794   2.43573909
H    1.88384300  -0.01156300  -0.96395600
H   -0.58047200   0.08749700  -0.94203500
H   -0.59260200  -0.05190700   0.92339400
H    1.68515800  -0.29987000   2.13377400
H    3.23222400  -0.30873100   1.08439600
H    2.95528370   2.56631894   1.94905709
10
Energy: -2691.4262934623
C   -0.02104800  -0.00832600  -0.00886900
C    1.36361800  -0.07641100  -0.00036300
C    2.14600500  -0.20852500   1.14516700
Br   3.45062993   4.16328825   2.57879379
H    1.88384300  -0.01156300  -0.96395600
H   -0.58047200   0.08749700  -0.94203500
H   -0.59260200  -0.05190700   0.92339400
H    1.68515800  -0.29987000   2.13377400
H    3.23222400  -0.30873100   1.08439600
H    3.11548793   2.83608925   2.09211179
10
Energy: -2691.4262934623
C   -0.02104800  -0.00832600  -0.00886900
C    1.36361800  -0.07641100  -0.00036300
C    2.14600500  -0.20852500   1.14516700
Br   3.61083416   4.43305856   2.72184848
H    1.88384300  -0.01156300  -0.96395600
H   -0.58047200   0.08749700  -0.94203500
H   -0.59260200  -0.05190700   0.92339400
H    1.68515800  -0.29987000   2.13377400
H    3.23222400  -0.30873100   1.08439600
H    3.27569216   3.10585956   2.23516648
10
Energy: -2691.4262934623
C   -0.02104800  -0.00832600  -0.00886900
C    1.36361800  -0.07641100  -0.00036300
C    2.14600500  -0.20852500   1.14516700
Br   3.77103840   4.70282888   2.86490318
H    1.88384300  -0.01156300  -0.96395600
H   -0.58047200   0.08749700  -0.94203500
H   -0.59260200  -0.05190700   0.92339400
H    1.68515800  -0.29987000   2.13377400
H    3.23222400  -0.30873100   1.08439600
H    3.43589640   3.37562988   2.37822118
10
Energy: -2691.4262934623
C   -0.02104800  -0.00832600  -0.00886900
C    1.36361800  -0.07641100  -0.00036300
C    2.14600500  -0.20852500   1.14516700
Br   3.93124263   4.97259919   3.00795788
H    1.88384300  -0.01156300  -0.96395600
H   -0.58047200   0.08749700  -0.94203500
H   -0.59260200  -0.05190700   0.92339400
H    1.68515800  -0.29987000   2.13377400
H    3.23222400  -0.30873100   1.08439600
H    3.59610063   3.64540019   2.52127588
10
Energy: -2691.4262934623
C   -0.02104800  -0.00832600  -0.00886900
C    1.36361800  -0.07641100  -0.00036300
C    2.14600500  -0.20852500   1.14516700
Br   4.09144686   5.24236950   3.15101257
H    1.88384300  -0.01156300  -0.96395600
H   -0.58047200   0.08749700  -0.94203500
H   -0.59260200  -0.05190700   0.92339400
H    1.68515800  -0.29987000   2.13377400
H    3.23222400  -0.30873100   1.08439600
H    3.75630486   3.91517050   2.66433057
10
Energy: -2691.4262934623
C   -0.02104800  -0.00832600  -0.00886900
C    1.36361800  -0.07641100  -0.00036300
C    2.14600500  -0.20852500   1.14516700
Br   4.25165110   5.51213982   3.29406727
H    1.88384300  -0.01156300  -0.96395600
H   -0.58047200   0.08749700  -0.94203500
H   -0.59260200  -0.05190700   0.92339400
H    1.68515800  -0.29987000   2.13377400
H    3.23222400  -0.30873100   1.08439600
H    3.91650910   4.18494082   2.80738527
10
Energy: -2691.4262934623
C   -0.02104800  -0.00832600  -0.00886900
C    1.36361800  -0.07641100  -0.00036300
C    2.14600500  -0.20852500   1.14516700
Br   4.41185533   5.78191013   3.43712197
H    1.88384300  -0.01156300  -0.96395600
H   -0.58047200   0.08749700  -0.94203500
H   -0.59260200  -0.05190700   0.92339400
H    1.68515800  -0.29987000   2.13377400
H    3.23222400  -0.30873100   1.08439600
H    4.07671333   4.45471113   2.95043997
10
Energy: -2691.4262934623
C   -0.02104800  -0.00832600  -0.00886900
C    1.36361800  -0.07641100  -0.00036300
C    2.14600500  -0.20852500   1.14516700
Br   4.57205956   6.05168044   3.58017666
H    1.88384300  -0.01156300  -0.96395600
H   -0.58047200   0.08749700  -0.94203500
H   -0.59260200  -0.05190700   0.92339400
H    1.68515800  -0.29987000   2.13377400
H    3.23222400  -0.30873100   1.08439600
H    4.23691756   4.72448144   3.09349466
10
Energy: -2691.4262934623
C   -0.02104800  -0.00832600  -0.00886900
C    1.36361800  -0.07641100  -0.00036300
C    2.14600500  -0.20852500   1.14516700
Br   4.73226379   6.32145076   3.72323136
H    1.88384300  -0.01156300  -0.96395600
H   -0.58047200   0.08749700  -0.94203500
H   -0.59260200  -0.05190700   0.92339400
H    1.68515800  -0.29987000   2.13377400
H    3.23222400  -0.30873100   1.08439600
H    4.39712179   4.99425176   3.23654936
10
Energy: -2691.4262934623
C   -0.02104800  -0.00832600  -0.00886900
C    1.36361800  -0.07641100  -0.00036300
C    2.14600500  -0.20852500   1.14516700
Br   4.89246803   6.59122107   3.86628606
H    1.88384300  -0.01156300  -0.96395600
H   -0.58047200   0.08749700  -0.94203500
H   -0.59260200  -0.05190700   0.92339400
H    1.68515800  -0.29987000   2.13377400
H    3.23222400  -0.30873100   1.08439600
H    4.55732603   5.26402207   3.37960406
10
Energy: -2691.4262934623
C   -0.02104800  -0.00832600  -0.00886900
C    1.36361800  -0.07641100  -0.00036300
C    2.14600500  -0.20852500   1.14516700
Br   5.05267226   6.86099138   4.00934075
H    1.88384300  -0.01156300  -0.96395600
H   -0.58047200   0.08749700  -0.94203500
H   -0.59260200  -0.05190700   0.92339400
H    1.68515800  -0.29987000   2.13377400
H    3.23222400  -0.30873100   1.08439600
H    4.71753026   5.53379238   3.52265875
10
Energy: -2691.4262934623
C   -0.02104800  -0.00832600  -0.00886900
C    1.36361800  -0.07641100  -0.00036300
C    2.14600500  -0.20852500   1.14516700
Br   5.21287649   7.13076169   4.15239545
H    1.88384300  -0.01156300  -0.96395600
H   -0.58047200   0.08749700  -0.94203500
H   -0.59260200  -0.05190700   0.92339400
H    1.68515800  -0.29987000   2.13377400
H    3.23222400  -0.30873100   1.08439600
H    4.87773449   5.80356269   3.66571345
10
Energy: -2691.4262934623
C   -0.02104800  -0.00832600  -0.00886900
C    1.36361800  -0.07641100  -0.00036300
C    2.14600500  -0.20852500   1.14516700
Br   5.37308073   7.40053201   4.29545015
H    1.88384300  -0.01156300  -0.96395600
H   -0.58047200   0.08749700  -0.94203500
H   -0.59260200  -0.05190700   0.92339400
H    1.68515800  -0.29987000   2.13377400
H    3.23222400  -0.30873100   1.08439600
H    5.03793873   6.07333301   3.80876815
10
Energy: -2691.4262934623
C   -0.02104800  -0.00832600  -0.00886900
C    1.36361800  -0.07641100  -0.00036300
C    2.14600500  -0.20852500   1.14516700
Br   5.53328496   7.67030232   4.43850484
H    1.88384300  -0.01156300  -0.96395600
H   -0.58047200   0.08749700  -0.94203500
H   -0.59260200  -0.05190700   0.92339400
H    1.68515800  -0.29987000   2.13377400
H    3.23222400  -0.30873100   1.08439600
H    5.19814296   6.34310332   3.95182284
10
Energy: -2691.4262934623
C   -0.02104800  -0.00832600  -0.00886900
C    1.36361800  -0.07641100  -0.00036300
C    2.14600500  -0.20852500   1.14516700
Br   5.69348919   7.94007263   4.58155954
H    1.88384300  -0.01156300  -0.96395600
H   -0.58047200   0.08749700  -0.94203500
H   -0.59260200  -0.05190700   0.92339400
H    1.68515800  -0.29987000   2.13377400
H    3.23222400  -0.30873100   1.08439600
H    5.35834719   6.61287363   4.09487754
10
Energy: -2691.4262934623
C   -0.02104800  -0.00832600  -0.00886900
C    1.36361800  -0.07641100  -0.00036300
C    2.14600500  -0.20852500   1.14516700
Br   5.85369342   8.20984295   4.72461424
H    1.88384300  -0.01156300  -0.96395600
H   -0.58047200   0.08749700  -0.94203500
H   -0.59260200  -0.05190700   0.92339400
H    1.68515800  -0.29987000   2.13377400
H    3.23222400  -0.30873100   1.08439600
H    5.51855142   6.88264395   4.23793224
10
Energy: -2691.4262934623
C   -0.02104800  -0.00832600  -0.00886900
C    1.36361800  -0.07641100  -0.00036300
C    2.14600500  -0.20852500   1.14516700
Br   6.01389766   8.47961326   4.86766893
H    1.88384300  -0.01156300  -0.96395600
H   -0.58047200   0.08749700  -0.94203500
H   -0.59260200  -0.05190700   0.92339400
H    1.68515800  -0.29987000   2.13377400
H    3.23222400  -0.30873100   1.08439600
H    5.67875566   7.15241426   4.38098693
10
Energy: -2691.4262934623
C   -0.02104800  -0.00832600  -0.00886900
C    1.36361800  -0.07641100  -0.00036300
C    2.14600500  -0.20852500   1.14516700
Br   6.17410189   8.74938357   5.01072363
H    1.88384300  -0.01156300  -0.96395600
H   -0.58047200   0.08749700  -0.94203500
H   -0.59260200  -0.05190700   0.92339400
H    1.68515800  -0.29987000   2.13377400
H    3.23222400  -0.30873100   1.08439600
H    5.83895989   7.42218457   4.52404163
10
Energy: -2691.4262934623
C   -0.02104800  -0.00832600  -0.00886900
C    1.36361800  -0.07641100  -0.00036300
C    2.14600500  -0.20852500   1.14516700
Br   6.33430612   9.01915388   5.15377833
H    1.88384300  -0.01156300  -0.96395600
H   -0.58047200   0.08749700  -0.94203500
H   -0.59260200  -0.05190700   0.92339400
H    1.68515800  -0.29987000   2.13377400
H    3.23222400  -0.30873100   1.08439600